gaussian_a02.178581.boonlay-h00
 Entering Gaussian System, Link 0=g09
 Initial command:
 /usr/local/gaussian-a02/g09/l1.exe /home/rwang013/scratch/gaussian_a02.178581.boonlay-h00/Gau-11879.inp -scrdir=/home/rwang013/scratch/gaussian_a02.178581.boonlay-h00/
 Entering Link 1 = /usr/local/gaussian-a02/g09/l1.exe PID=     11880.
  
 Copyright (c) 1988,1990,1992,1993,1995,1998,2003,2009, Gaussian, Inc.
                  All Rights Reserved.
  
 This is part of the Gaussian(R) 09 program.  It is based on
 the Gaussian(R) 03 system (copyright 2003, Gaussian, Inc.),
 the Gaussian(R) 98 system (copyright 1998, Gaussian, Inc.),
 the Gaussian(R) 94 system (copyright 1995, Gaussian, Inc.),
 the Gaussian 92(TM) system (copyright 1992, Gaussian, Inc.),
 the Gaussian 90(TM) system (copyright 1990, Gaussian, Inc.),
 the Gaussian 88(TM) system (copyright 1988, Gaussian, Inc.),
 the Gaussian 86(TM) system (copyright 1986, Carnegie Mellon
 University), and the Gaussian 82(TM) system (copyright 1983,
 Carnegie Mellon University). Gaussian is a federally registered
 trademark of Gaussian, Inc.
  
 This software contains proprietary and confidential information,
 including trade secrets, belonging to Gaussian, Inc.
  
 This software is provided under written license and may be
 used, copied, transmitted, or stored only in accord with that
 written license.
  
 The following legend is applicable only to US Government
 contracts under FAR:
  
                    RESTRICTED RIGHTS LEGEND
  
 Use, reproduction and disclosure by the US Government is
 subject to restrictions as set forth in subparagraphs (a)
 and (c) of the Commercial Computer Software - Restricted
 Rights clause in FAR 52.227-19.
  
 Gaussian, Inc.
 340 Quinnipiac St., Bldg. 40, Wallingford CT 06492
  
  
 ---------------------------------------------------------------
 Warning -- This program may not be used in any manner that
 competes with the business of Gaussian, Inc. or will provide
 assistance to any competitor of Gaussian, Inc.  The licensee
 of this program is prohibited from giving any competitor of
 Gaussian, Inc. access to this program.  By using this program,
 the user acknowledges that Gaussian, Inc. is engaged in the
 business of creating and licensing software in the field of
 computational chemistry and represents and warrants to the
 licensee that it is not a competitor of Gaussian, Inc. and that
 it will not use this program in any manner prohibited above.
 ---------------------------------------------------------------
  

 Cite this work as:
 Gaussian 09, Revision A.02,
 M. J. Frisch, G. W. Trucks, H. B. Schlegel, G. E. Scuseria, 
 M. A. Robb, J. R. Cheeseman, G. Scalmani, V. Barone, B. Mennucci, 
 G. A. Petersson, H. Nakatsuji, M. Caricato, X. Li, H. P. Hratchian, 
 A. F. Izmaylov, J. Bloino, G. Zheng, J. L. Sonnenberg, M. Hada, 
 M. Ehara, K. Toyota, R. Fukuda, J. Hasegawa, M. Ishida, T. Nakajima, 
 Y. Honda, O. Kitao, H. Nakai, T. Vreven, J. A. Montgomery, Jr., 
 J. E. Peralta, F. Ogliaro, M. Bearpark, J. J. Heyd, E. Brothers, 
 K. N. Kudin, V. N. Staroverov, R. Kobayashi, J. Normand, 
 K. Raghavachari, A. Rendell, J. C. Burant, S. S. Iyengar, J. Tomasi, 
 M. Cossi, N. Rega, J. M. Millam, M. Klene, J. E. Knox, J. B. Cross, 
 V. Bakken, C. Adamo, J. Jaramillo, R. Gomperts, R. E. Stratmann, 
 O. Yazyev, A. J. Austin, R. Cammi, C. Pomelli, J. W. Ochterski, 
 R. L. Martin, K. Morokuma, V. G. Zakrzewski, G. A. Voth, 
 P. Salvador, J. J. Dannenberg, S. Dapprich, A. D. Daniels, 
 O. Farkas, J. B. Foresman, J. V. Ortiz, J. Cioslowski, 
 and D. J. Fox, Gaussian, Inc., Wallingford CT, 2009.
 
 ******************************************
 Gaussian 09:  EM64L-G09RevA.02 11-Jun-2009
                31-Mar-2016 
 ******************************************
 %chk=/home/rwang013/scratch/gaussian_a02.178581.boonlay-h00/this.chk
 %NProcShared=6
 Will use up to    6 processors via shared memory.
 %mem=12gb
 ----------------------------------------------------------------------
 #p b3lyp/chkbas nosymm gfoldprint iop(6/33=2,6/42=17,6/41=10) scf=(max
 cycle=128) int=ultrafine pop=mk geom=allcheck guess=tcheck
 ----------------------------------------------------------------------
 1/29=7,38=1/1;
 2/12=2,15=1,40=1/2;
 3/5=7,6=2,11=2,14=-4,16=1,24=1,25=1,30=1,67=1,74=-5,75=-5,116=-2/1,2,3;
 4/5=101/1;
 5/5=2,7=128/2;
 6/7=2,8=2,9=2,10=2,15=8,20=1,28=1,33=2,41=10,42=17/1,2;
 99/5=1,9=1/99;
 Leave Link    1 at Thu Mar 31 11:42:20 2016, MaxMem= 1610612736 cpu:       0.5
 (Enter /usr/local/gaussian-a02/g09/l101.exe)
 ---------
 opt-title
 ---------
 Redundant internal coordinates taken from checkpoint file:
 /home/rwang013/scratch/gaussian_a02.178581.boonlay-h00/this.chk
 Charge =  0 Multiplicity = 1
 C,0,-0.1960660323,0.0839546103,0.0000603594
 C,0,1.2028250763,0.083884471,0.0005060189
 C,0,1.902331654,1.2953250354,-0.0000471364
 C,0,1.2029467077,2.506835148,-0.0010455962
 C,0,-0.1959444094,2.5069053169,-0.0014910918
 C,0,-0.8954509972,1.2954647382,-0.0009382991
 H,0,-0.7397513458,-0.8576259342,0.0004899871
 H,0,1.7464164212,-0.8577500156,0.0012814516
 H,0,2.9896068228,1.2952706254,0.0002992971
 H,0,1.7466322779,3.4484155332,-0.0014750375
 H,0,-0.7395361242,3.4485395988,-0.0022663791
 H,0,-1.9827261712,1.295519561,-0.0012845739
 Recover connectivity data from disk.
                    Isotopes and Nuclear Properties:
 (Nuclear quadrupole moments (NQMom) in fm**2, nuclear magnetic moments (NMagM)
  in nuclear magnetons)

  Atom         1           2           3           4           5           6           7           8           9          10
 IAtWgt=          12          12          12          12          12          12           1           1           1           1
 AtmWgt=  12.0000000  12.0000000  12.0000000  12.0000000  12.0000000  12.0000000   1.0078250   1.0078250   1.0078250   1.0078250
 NucSpn=           0           0           0           0           0           0           1           1           1           1
 AtZEff=  -3.6000000  -3.6000000  -3.6000000  -3.6000000  -3.6000000  -3.6000000  -1.0000000  -1.0000000  -1.0000000  -1.0000000
 NQMom=    0.0000000   0.0000000   0.0000000   0.0000000   0.0000000   0.0000000   0.0000000   0.0000000   0.0000000   0.0000000
 NMagM=    0.0000000   0.0000000   0.0000000   0.0000000   0.0000000   0.0000000   2.7928460   2.7928460   2.7928460   2.7928460

  Atom        11          12
 IAtWgt=           1           1
 AtmWgt=   1.0078250   1.0078250
 NucSpn=           1           1
 AtZEff=  -1.0000000  -1.0000000
 NQMom=    0.0000000   0.0000000
 NMagM=    2.7928460   2.7928460
 Leave Link  101 at Thu Mar 31 11:42:21 2016, MaxMem= 1610612736 cpu:       0.5
 (Enter /usr/local/gaussian-a02/g09/l202.exe)
                          Input orientation:                          
 ---------------------------------------------------------------------
 Center     Atomic      Atomic             Coordinates (Angstroms)
 Number     Number       Type             X           Y           Z
 ---------------------------------------------------------------------
      1          6           0       -0.196066    0.083955    0.000060
      2          6           0        1.202825    0.083884    0.000506
      3          6           0        1.902332    1.295325   -0.000047
      4          6           0        1.202947    2.506835   -0.001046
      5          6           0       -0.195944    2.506905   -0.001491
      6          6           0       -0.895451    1.295465   -0.000938
      7          1           0       -0.739751   -0.857626    0.000490
      8          1           0        1.746416   -0.857750    0.001281
      9          1           0        2.989607    1.295271    0.000299
     10          1           0        1.746632    3.448416   -0.001475
     11          1           0       -0.739536    3.448540   -0.002266
     12          1           0       -1.982726    1.295520   -0.001285
 ---------------------------------------------------------------------
                    Distance matrix (angstroms):
                    1          2          3          4          5
     1  C    0.000000
     2  C    1.398891   0.000000
     3  C    2.422951   1.398892   0.000000
     4  C    2.797783   2.422951   1.398891   0.000000
     5  C    2.422951   2.797783   2.422951   1.398891   0.000000
     6  C    1.398891   2.422951   2.797783   2.422951   1.398892
     7  H    1.087275   2.158714   3.408196   3.885058   3.408196
     8  H    2.158714   1.087275   2.158713   3.408196   3.885058
     9  H    3.408196   2.158714   1.087275   2.158714   3.408196
    10  H    3.885058   3.408196   2.158713   1.087275   2.158714
    11  H    3.408196   3.885058   3.408196   2.158715   1.087275
    12  H    2.158714   3.408196   3.885058   3.408196   2.158714
                    6          7          8          9         10
     6  C    0.000000
     7  H    2.158713   0.000000
     8  H    3.408196   2.486168   0.000000
     9  H    3.885058   4.306167   2.486166   0.000000
    10  H    3.408196   4.972334   4.306166   2.486166   0.000000
    11  H    2.158713   4.306166   4.972334   4.306168   2.486169
    12  H    1.087275   2.486167   4.306168   4.972333   4.306167
                   11         12
    11  H    0.000000
    12  H    2.486165   0.000000
 Symmetry turned off by external request.
 Stoichiometry    C6H6
 Framework group  C1[X(C6H6)]
 Deg. of freedom    30
 Full point group                 C1      NOp   1
 Rotational constants (GHZ):      5.6697220      5.6697213      2.8348608
 Leave Link  202 at Thu Mar 31 11:42:23 2016, MaxMem= 1610612736 cpu:       0.1
 (Enter /usr/local/gaussian-a02/g09/l301.exe)
 Basis read from chk: /home/rwang013/scratch/gaussian_a02.178581.boonlay-h00/this
 .chk (5D, 7F)
 ***********************************************************************************************************************************
 *             ATOMIC CENTER             *        ATOMIC ORBITAL       *                     GAUSSIAN FUNCTIONS                    *
 ***********************************************************************************************************************************
 *                                       * FUNCTION    SHELL    SCALE  *                                                           *
 *    ATOM   X-COORD  Y-COORD  Z-COORD   *  NUMBER     TYPE     FACTOR *  EXPONENT    S-COEF      P-COEF      D-COEF      F-COEF   *
 ***********************************************************************************************************************************
 *     C     -0.37051  0.15865  0.00011                                                                                            *
+                                                1   S           1.00                                                               
+                                                                      0.304752D+040.536345D+000.000000D+000.000000D+000.000000D+00 
 *                                                                     0.457370D+030.989452D+000.000000D+000.000000D+000.000000D+00*
 *                                                                     0.103949D+030.159728D+010.000000D+000.000000D+000.000000D+00*
 *                                                                     0.292102D+020.207919D+010.000000D+000.000000D+000.000000D+00*
 *                                                                     0.928666D+010.177417D+010.000000D+000.000000D+000.000000D+00*
 *                                                                     0.316393D+010.612580D+000.000000D+000.000000D+000.000000D+00*
 *                                           2-  5   SP          1.00                                                              *
+                                                                      0.786827D+01-.399556D+000.129608D+010.000000D+000.000000D+00 
 *                                                                     0.188129D+01-.184155D+000.993754D+000.000000D+000.000000D+00*
 *                                                                     0.544249D+000.516390D+000.495953D+000.000000D+000.000000D+00*
 *                                           6-  9   SP          1.00                                                              *
+                                                                      0.168714D+000.187618D+000.154128D+000.000000D+000.000000D+00 
 *                                          10- 13   SP          1.00                                                              *
+                                                                      0.438000D-010.682363D-010.285616D-010.000000D+000.000000D+00 
 *                                          14- 18   D           1.00                                                              *
+                                                                      0.800000D+000.000000D+000.000000D+000.111382D+010.000000D+00 
 *---------------------------------------------------------------------------------------------------------------------------------*
 *     C      2.27301  0.15852  0.00096                                                                                            *
+                                               19   S           1.00                                                               
+                                                                      0.304752D+040.536345D+000.000000D+000.000000D+000.000000D+00 
 *                                                                     0.457370D+030.989452D+000.000000D+000.000000D+000.000000D+00*
 *                                                                     0.103949D+030.159728D+010.000000D+000.000000D+000.000000D+00*
 *                                                                     0.292102D+020.207919D+010.000000D+000.000000D+000.000000D+00*
 *                                                                     0.928666D+010.177417D+010.000000D+000.000000D+000.000000D+00*
 *                                                                     0.316393D+010.612580D+000.000000D+000.000000D+000.000000D+00*
 *                                          20- 23   SP          1.00                                                              *
+                                                                      0.786827D+01-.399556D+000.129608D+010.000000D+000.000000D+00 
 *                                                                     0.188129D+01-.184155D+000.993754D+000.000000D+000.000000D+00*
 *                                                                     0.544249D+000.516390D+000.495953D+000.000000D+000.000000D+00*
 *                                          24- 27   SP          1.00                                                              *
+                                                                      0.168714D+000.187618D+000.154128D+000.000000D+000.000000D+00 
 *                                          28- 31   SP          1.00                                                              *
+                                                                      0.438000D-010.682363D-010.285616D-010.000000D+000.000000D+00 
 *                                          32- 36   D           1.00                                                              *
+                                                                      0.800000D+000.000000D+000.000000D+000.111382D+010.000000D+00 
 *---------------------------------------------------------------------------------------------------------------------------------*
 *     C      3.59489  2.44781 -0.00009                                                                                            *
+                                               37   S           1.00                                                               
+                                                                      0.304752D+040.536345D+000.000000D+000.000000D+000.000000D+00 
 *                                                                     0.457370D+030.989452D+000.000000D+000.000000D+000.000000D+00*
 *                                                                     0.103949D+030.159728D+010.000000D+000.000000D+000.000000D+00*
 *                                                                     0.292102D+020.207919D+010.000000D+000.000000D+000.000000D+00*
 *                                                                     0.928666D+010.177417D+010.000000D+000.000000D+000.000000D+00*
 *                                                                     0.316393D+010.612580D+000.000000D+000.000000D+000.000000D+00*
 *                                          38- 41   SP          1.00                                                              *
+                                                                      0.786827D+01-.399556D+000.129608D+010.000000D+000.000000D+00 
 *                                                                     0.188129D+01-.184155D+000.993754D+000.000000D+000.000000D+00*
 *                                                                     0.544249D+000.516390D+000.495953D+000.000000D+000.000000D+00*
 *                                          42- 45   SP          1.00                                                              *
+                                                                      0.168714D+000.187618D+000.154128D+000.000000D+000.000000D+00 
 *                                          46- 49   SP          1.00                                                              *
+                                                                      0.438000D-010.682363D-010.285616D-010.000000D+000.000000D+00 
 *                                          50- 54   D           1.00                                                              *
+                                                                      0.800000D+000.000000D+000.000000D+000.111382D+010.000000D+00 
 *---------------------------------------------------------------------------------------------------------------------------------*
 *     C      2.27324  4.73723 -0.00198                                                                                            *
+                                               55   S           1.00                                                               
+                                                                      0.304752D+040.536345D+000.000000D+000.000000D+000.000000D+00 
 *                                                                     0.457370D+030.989452D+000.000000D+000.000000D+000.000000D+00*
 *                                                                     0.103949D+030.159728D+010.000000D+000.000000D+000.000000D+00*
 *                                                                     0.292102D+020.207919D+010.000000D+000.000000D+000.000000D+00*
 *                                                                     0.928666D+010.177417D+010.000000D+000.000000D+000.000000D+00*
 *                                                                     0.316393D+010.612580D+000.000000D+000.000000D+000.000000D+00*
 *                                          56- 59   SP          1.00                                                              *
+                                                                      0.786827D+01-.399556D+000.129608D+010.000000D+000.000000D+00 
 *                                                                     0.188129D+01-.184155D+000.993754D+000.000000D+000.000000D+00*
 *                                                                     0.544249D+000.516390D+000.495953D+000.000000D+000.000000D+00*
 *                                          60- 63   SP          1.00                                                              *
+                                                                      0.168714D+000.187618D+000.154128D+000.000000D+000.000000D+00 
 *                                          64- 67   SP          1.00                                                              *
+                                                                      0.438000D-010.682363D-010.285616D-010.000000D+000.000000D+00 
 *                                          68- 72   D           1.00                                                              *
+                                                                      0.800000D+000.000000D+000.000000D+000.111382D+010.000000D+00 
 *---------------------------------------------------------------------------------------------------------------------------------*
 *     C     -0.37028  4.73736 -0.00282                                                                                            *
+                                               73   S           1.00                                                               
+                                                                      0.304752D+040.536345D+000.000000D+000.000000D+000.000000D+00 
 *                                                                     0.457370D+030.989452D+000.000000D+000.000000D+000.000000D+00*
 *                                                                     0.103949D+030.159728D+010.000000D+000.000000D+000.000000D+00*
 *                                                                     0.292102D+020.207919D+010.000000D+000.000000D+000.000000D+00*
 *                                                                     0.928666D+010.177417D+010.000000D+000.000000D+000.000000D+00*
 *                                                                     0.316393D+010.612580D+000.000000D+000.000000D+000.000000D+00*
 *                                          74- 77   SP          1.00                                                              *
+                                                                      0.786827D+01-.399556D+000.129608D+010.000000D+000.000000D+00 
 *                                                                     0.188129D+01-.184155D+000.993754D+000.000000D+000.000000D+00*
 *                                                                     0.544249D+000.516390D+000.495953D+000.000000D+000.000000D+00*
 *                                          78- 81   SP          1.00                                                              *
+                                                                      0.168714D+000.187618D+000.154128D+000.000000D+000.000000D+00 
 *                                          82- 85   SP          1.00                                                              *
+                                                                      0.438000D-010.682363D-010.285616D-010.000000D+000.000000D+00 
 *                                          86- 90   D           1.00                                                              *
+                                                                      0.800000D+000.000000D+000.000000D+000.111382D+010.000000D+00 
 *---------------------------------------------------------------------------------------------------------------------------------*
 *     C     -1.69216  2.44807 -0.00177                                                                                            *
+                                               91   S           1.00                                                               
+                                                                      0.304752D+040.536345D+000.000000D+000.000000D+000.000000D+00 
 *                                                                     0.457370D+030.989452D+000.000000D+000.000000D+000.000000D+00*
 *                                                                     0.103949D+030.159728D+010.000000D+000.000000D+000.000000D+00*
 *                                                                     0.292102D+020.207919D+010.000000D+000.000000D+000.000000D+00*
 *                                                                     0.928666D+010.177417D+010.000000D+000.000000D+000.000000D+00*
 *                                                                     0.316393D+010.612580D+000.000000D+000.000000D+000.000000D+00*
 *                                          92- 95   SP          1.00                                                              *
+                                                                      0.786827D+01-.399556D+000.129608D+010.000000D+000.000000D+00 
 *                                                                     0.188129D+01-.184155D+000.993754D+000.000000D+000.000000D+00*
 *                                                                     0.544249D+000.516390D+000.495953D+000.000000D+000.000000D+00*
 *                                          96- 99   SP          1.00                                                              *
+                                                                      0.168714D+000.187618D+000.154128D+000.000000D+000.000000D+00 
 *                                         100-103   SP          1.00                                                              *
+                                                                      0.438000D-010.682363D-010.285616D-010.000000D+000.000000D+00 
 *                                         104-108   D           1.00                                                              *
+                                                                      0.800000D+000.000000D+000.000000D+000.111382D+010.000000D+00 
 *---------------------------------------------------------------------------------------------------------------------------------*
 *     H     -1.39793 -1.62068  0.00093                                                                                            *
+                                              109   S           1.00                                                               
+                                                                      0.187311D+020.214935D+000.000000D+000.000000D+000.000000D+00 
 *                                                                     0.282539D+010.364571D+000.000000D+000.000000D+000.000000D+00*
 *                                                                     0.640122D+000.415051D+000.000000D+000.000000D+000.000000D+00*
 *                                             110   S           1.00                                                              *
+                                                                      0.161278D+000.181381D+000.000000D+000.000000D+000.000000D+00 
 *---------------------------------------------------------------------------------------------------------------------------------*
 *     H      3.30025 -1.62091  0.00242                                                                                            *
+                                              111   S           1.00                                                               
+                                                                      0.187311D+020.214935D+000.000000D+000.000000D+000.000000D+00 
 *                                                                     0.282539D+010.364571D+000.000000D+000.000000D+000.000000D+00*
 *                                                                     0.640122D+000.415051D+000.000000D+000.000000D+000.000000D+00*
 *                                             112   S           1.00                                                              *
+                                                                      0.161278D+000.181381D+000.000000D+000.000000D+000.000000D+00 
 *---------------------------------------------------------------------------------------------------------------------------------*
 *     H      5.64954  2.44771  0.00057                                                                                            *
+                                              113   S           1.00                                                               
+                                                                      0.187311D+020.214935D+000.000000D+000.000000D+000.000000D+00 
 *                                                                     0.282539D+010.364571D+000.000000D+000.000000D+000.000000D+00*
 *                                                                     0.640122D+000.415051D+000.000000D+000.000000D+000.000000D+00*
 *                                             114   S           1.00                                                              *
+                                                                      0.161278D+000.181381D+000.000000D+000.000000D+000.000000D+00 
 *---------------------------------------------------------------------------------------------------------------------------------*
 *     H      3.30066  6.51656 -0.00279                                                                                            *
+                                              115   S           1.00                                                               
+                                                                      0.187311D+020.214935D+000.000000D+000.000000D+000.000000D+00 
 *                                                                     0.282539D+010.364571D+000.000000D+000.000000D+000.000000D+00*
 *                                                                     0.640122D+000.415051D+000.000000D+000.000000D+000.000000D+00*
 *                                             116   S           1.00                                                              *
+                                                                      0.161278D+000.181381D+000.000000D+000.000000D+000.000000D+00 
 *---------------------------------------------------------------------------------------------------------------------------------*
 *     H     -1.39752  6.51680 -0.00428                                                                                            *
+                                              117   S           1.00                                                               
+                                                                      0.187311D+020.214935D+000.000000D+000.000000D+000.000000D+00 
 *                                                                     0.282539D+010.364571D+000.000000D+000.000000D+000.000000D+00*
 *                                                                     0.640122D+000.415051D+000.000000D+000.000000D+000.000000D+00*
 *                                             118   S           1.00                                                              *
+                                                                      0.161278D+000.181381D+000.000000D+000.000000D+000.000000D+00 
 *---------------------------------------------------------------------------------------------------------------------------------*
 *     H     -3.74681  2.44818 -0.00243                                                                                            *
+                                              119   S           1.00                                                               
+                                                                      0.187311D+020.214935D+000.000000D+000.000000D+000.000000D+00 
 *                                                                     0.282539D+010.364571D+000.000000D+000.000000D+000.000000D+00*
 *                                                                     0.640122D+000.415051D+000.000000D+000.000000D+000.000000D+00*
 *                                             120   S           1.00                                                              *
+                                                                      0.161278D+000.181381D+000.000000D+000.000000D+000.000000D+00 
 ***********************************************************************************************************************************
 Pseudo-potential data read from chk file.
 Integral buffers will be    131072 words long.
 Raffenetti 2 integral format.
 Two-electron integral symmetry is turned off.
   120 basis functions,   216 primitive gaussians,   126 cartesian basis functions
    21 alpha electrons       21 beta electrons
       nuclear repulsion energy       202.8986110856 Hartrees.
 IExCor=  402 DFT=T Ex+Corr=B3LYP ExCW=0 ScaHFX=  0.200000
 ScaDFX=  0.800000  0.720000  1.000000  0.810000 ScalE2=  1.000000  1.000000
 IRadAn=      5 IRanWt=     -1 IRanGd=            0 ICorTp=0
 NAtoms=   12 NActive=   12 NUniq=   12 SFac= 7.50D-01 NAtFMM=   80 NAOKFM=F Big=F
 No density basis found on file 20724.
 Leave Link  301 at Thu Mar 31 11:42:25 2016, MaxMem= 1610612736 cpu:       0.8
 (Enter /usr/local/gaussian-a02/g09/l302.exe)
 NPDir=0 NMtPBC=     1 NCelOv=     1 NCel=       1 NClECP=     1 NCelD=      1
         NCelK=      1 NCelE2=     1 NClLst=     1 CellRange=     0.0.
 One-electron integrals computed using PRISM.
   1 Symmetry operations used in ECPInt.
 ECPInt:  NShTT=     903 NPrTT=    4782 LenC2=     904 LenP2D=    3780.
 LDataN:  DoStor=T MaxTD1= 4 Len=   56
 NBasis=   120 RedAO= T  NBF=   120
 NBsUse=   120 1.00D-06 NBFU=   120
 Precomputing XC quadrature grid using
 IXCGrd= 2 IRadAn=           5 IRanWt=          -1 IRanGd=           0 AccXCQ= 1.00D-10.
 NRdTot=    1014 NPtTot=      272232 NUsed=      279499 NTot=      279531
 NSgBfM=   126   126   126   126   126 NAtAll=    12    12.
 Leave Link  302 at Thu Mar 31 11:42:27 2016, MaxMem= 1610612736 cpu:       1.7
 (Enter /usr/local/gaussian-a02/g09/l303.exe)
 DipDrv:  MaxL=1.
 Leave Link  303 at Thu Mar 31 11:42:31 2016, MaxMem= 1610612736 cpu:       0.6
 (Enter /usr/local/gaussian-a02/g09/l401.exe)
 Initial guess read from the checkpoint file:  /home/rwang013/scratch/gaussian_a0
 2.178581.boonlay-h00/this.chk
 B after Tr=     0.000000    0.000000    0.000000
         Rot=    1.000000    0.000000    0.000000    0.000000 Ang=   0.00 deg.
 Guess basis will be translated and rotated to current coordinates.
 Leave Link  401 at Thu Mar 31 11:42:32 2016, MaxMem= 1610612736 cpu:       1.3
 (Enter /usr/local/gaussian-a02/g09/l502.exe)
 Closed shell SCF:
 Requested convergence on RMS density matrix=1.00D-08 within 128 cycles.
 Requested convergence on MAX density matrix=1.00D-06.
 Requested convergence on             energy=1.00D-06.
 No special actions if energy rises.
 Using DIIS extrapolation, IDIIS=  1040.
 Two-electron integral symmetry not used.
       279378 words used for storage of precomputed grid.
 Keep R1 ints in memory in canonical form, NReq=33382831.
 IEnd=      346688 IEndB=      346688 NGot=  1610612736 MDV=  1578286662
 LenX=  1578286662 LenY=  1578270345
 Symmetry not used in FoFDir.
 MinBra= 0 MaxBra= 2 Meth= 1.
 IRaf=       0 NMat=   1 IRICut=       1 DoRegI=T DoRafI=F ISym2E= 0 JSym2E=0.

 Cycle   1  Pass 1  IDiag  1:
 E= -232.254395843944    
 DIIS: error= 4.01D-09 at cycle   1 NSaved=   1.
 NSaved= 1 IEnMin= 1 EnMin= -232.254395843944     IErMin= 1 ErrMin= 4.01D-09
 ErrMax= 4.01D-09 EMaxC= 1.00D-01 BMatC= 1.44D-15 BMatP= 1.44D-15
 IDIUse=1 WtCom= 1.00D+00 WtEn= 0.00D+00
 Coeff-Com:  0.100D+01
 Coeff:      0.100D+01
 Gap=     0.243 Goal=   None    Shift=    0.000
 RMSDP=9.73D-10 MaxDP=1.75D-08              OVMax= 3.36D-08

 SCF Done:  E(RB3LYP) =  -232.254395844     A.U. after    1 cycles
             Convg  =    0.9730D-09             -V/T =  2.0070
 KE= 2.306346209031D+02 PE=-9.434946381654D+02 EE= 2.777070103327D+02
 Leave Link  502 at Thu Mar 31 11:42:37 2016, MaxMem= 1610612736 cpu:      13.6
 (Enter /usr/local/gaussian-a02/g09/l601.exe)
 Copying SCF densities to generalized density rwf, IOpCl= 0 IROHF=0.

 **********************************************************************

            Population analysis using the SCF density.

 **********************************************************************

 Alpha  occ. eigenvalues --  -10.19308 -10.19287 -10.19287 -10.19239 -10.19239
 Alpha  occ. eigenvalues --  -10.19218  -0.85639  -0.74963  -0.74963  -0.60681
 Alpha  occ. eigenvalues --   -0.60681  -0.52728  -0.46772  -0.44843  -0.42655
 Alpha  occ. eigenvalues --   -0.42655  -0.36913  -0.34973  -0.34973  -0.25702
 Alpha  occ. eigenvalues --   -0.25702
 Alpha virt. eigenvalues --   -0.01448  -0.01448   0.00896   0.02623   0.02623
 Alpha virt. eigenvalues --    0.04595   0.04595   0.06685   0.07803   0.07983
 Alpha virt. eigenvalues --    0.09228   0.09228   0.09978   0.12668   0.14272
 Alpha virt. eigenvalues --    0.14273   0.14485   0.14485   0.15543   0.15544
 Alpha virt. eigenvalues --    0.19609   0.19680   0.19680   0.20501   0.21190
 Alpha virt. eigenvalues --    0.21190   0.23532   0.24381   0.24381   0.26630
 Alpha virt. eigenvalues --    0.27907   0.27907   0.32468   0.34765   0.34765
 Alpha virt. eigenvalues --    0.34901   0.34901   0.56520   0.57573   0.60097
 Alpha virt. eigenvalues --    0.62048   0.65937   0.71752   0.71752   0.72209
 Alpha virt. eigenvalues --    0.72210   0.74683   0.74683   0.77113   0.77113
 Alpha virt. eigenvalues --    0.80349   0.83235   0.89853   0.93169   0.93169
 Alpha virt. eigenvalues --    0.96446   0.96446   0.97524   1.03414   1.07953
 Alpha virt. eigenvalues --    1.07953   1.13611   1.13611   1.17407   1.17407
 Alpha virt. eigenvalues --    1.25073   1.31058   1.39147   1.43448   1.43448
 Alpha virt. eigenvalues --    1.47781   1.47781   1.50488   1.50488   1.75431
 Alpha virt. eigenvalues --    1.81528   1.88340   1.91067   1.98765   1.98765
 Alpha virt. eigenvalues --    2.10399   2.10399   2.14952   2.14952   2.16183
 Alpha virt. eigenvalues --    2.16183   2.30031   2.30031   2.31905   2.57116
 Alpha virt. eigenvalues --    2.57116   2.64155   2.70047   2.70048   2.73159
 Alpha virt. eigenvalues --    2.73159   2.82720   3.01740   3.39578
          Condensed to atoms (all electrons):
              1          2          3          4          5          6
     1  C    5.022891   0.525971  -0.101241   0.011548  -0.101239   0.525971
     2  C    0.525971   5.022891   0.525970  -0.101239   0.011548  -0.101241
     3  C   -0.101241   0.525970   5.022903   0.525970  -0.101241   0.011547
     4  C    0.011548  -0.101239   0.525970   5.022891   0.525971  -0.101241
     5  C   -0.101239   0.011548  -0.101241   0.525971   5.022890   0.525970
     6  C    0.525971  -0.101241   0.011547  -0.101241   0.525970   5.022903
     7  H    0.281687  -0.002778   0.013074  -0.009381   0.013074  -0.002777
     8  H   -0.002778   0.281687  -0.002778   0.013074  -0.009381   0.013074
     9  H    0.013074  -0.002777   0.281685  -0.002777   0.013074  -0.009381
    10  H   -0.009381   0.013074  -0.002777   0.281687  -0.002778   0.013074
    11  H    0.013074  -0.009381   0.013074  -0.002778   0.281687  -0.002778
    12  H   -0.002777   0.013074  -0.009381   0.013074  -0.002777   0.281685
              7          8          9         10         11         12
     1  C    0.281687  -0.002778   0.013074  -0.009381   0.013074  -0.002777
     2  C   -0.002778   0.281687  -0.002777   0.013074  -0.009381   0.013074
     3  C    0.013074  -0.002778   0.281685  -0.002777   0.013074  -0.009381
     4  C   -0.009381   0.013074  -0.002777   0.281687  -0.002778   0.013074
     5  C    0.013074  -0.009381   0.013074  -0.002778   0.281687  -0.002777
     6  C   -0.002777   0.013074  -0.009381   0.013074  -0.002778   0.281685
     7  H    0.541126  -0.005268  -0.000154   0.000015  -0.000154  -0.005268
     8  H   -0.005268   0.541126  -0.005268  -0.000154   0.000015  -0.000154
     9  H   -0.000154  -0.005268   0.541127  -0.005268  -0.000154   0.000015
    10  H    0.000015  -0.000154  -0.005268   0.541126  -0.005268  -0.000154
    11  H   -0.000154   0.000015  -0.000154  -0.005268   0.541126  -0.005268
    12  H   -0.005268  -0.000154   0.000015  -0.000154  -0.005268   0.541127
 Mulliken atomic charges:
              1
     1  C   -0.176801
     2  C   -0.176801
     3  C   -0.176807
     4  C   -0.176801
     5  C   -0.176801
     6  C   -0.176807
     7  H    0.176803
     8  H    0.176804
     9  H    0.176803
    10  H    0.176803
    11  H    0.176804
    12  H    0.176803
 Sum of Mulliken atomic charges =   0.00000
 Mulliken charges with hydrogens summed into heavy atoms:
              1
     1  C    0.000002
     2  C    0.000002
     3  C   -0.000004
     4  C    0.000002
     5  C    0.000002
     6  C   -0.000004
 Sum of Mulliken charges with hydrogens summed into heavy atoms =   0.00000
 DipInt: DoE/N= T F RetVal/Mat= T F Init=T NMatP=  1 IDeriv=0 Min/MaxMlt=  0  4
 Entering OneElI...
 OneElI was handed  1610569869 working-precision words.
 Multipole integrals L=0 to 4 MinM= 0 MaxM= 0.
 Requested accuracy = 0.1000D-12
 PrsmSu:  NPrtUS=   1 ThrOK=F IAlg=1
 PRISM was handed  1610485877 working-precision words and   900 shell-pairs
 IPart=  0 NShTot=         900 NBatch=          29 AvBLen=        31.0
 Electronic moments (au):
        -42.00000000        -39.95730290       -102.81354599          0.03909805
       -253.95820923       -467.62572771        -30.05405159        -97.81317113
         -0.02200384          0.21473264       -652.49011537      -2201.95787327
          0.08393300       -444.88258316       -621.67494140          0.12378093
        -28.59224292        -73.57078386          1.01801685          0.05937772
      -3708.49250172     -11773.73187299       -138.65470057      -1597.25809351
         -0.18148394      -2094.86496511          5.45220238         -0.04443865
          0.45535595      -2551.06937431       -203.52221986       -356.41835936
          0.83169638          0.40444891        -69.99215427
 Electronic spatial extent (au):  <R**2>=            751.6380
 DipInt: DoE/N= F T RetVal/Mat= T F Init=T NMatP=  1 IDeriv=0 Min/MaxMlt=  0  4
 Nuclear    moments (au):
         42.00000000         39.95730264        102.81354602         -0.03909792
        230.02018640        443.68771946          0.00013459         97.81316925
          0.02395215         -0.21864768        584.16877107       2026.16132954
         -0.00000031        422.10880734        563.07606460         -0.09778855
          0.00001420          0.00055831         -1.01489838         -0.05833348
       2832.60434471      10167.16213479          0.00000000       1430.01136372
          0.18129872       1927.61831020         -5.21997847          0.00000015
         -0.00000165       2137.32654692          0.00048952          0.00287212
         -0.72529896         -0.41285291          0.00001395
 Total      moments (au):
          0.00000000         -0.00000025          0.00000003          0.00000013
        -23.93802283        -23.93800825        -30.05391700         -0.00000188
          0.00194831         -0.00391504        -68.32134431       -175.79654373
          0.08393269        -22.77377581        -58.59887680          0.02599238
        -28.59222873        -73.57022555          0.00311847          0.00104423
       -875.88815701      -1606.56973820       -138.65470057       -167.24672979
         -0.00018523       -167.24665491          0.23222391         -0.04443850
          0.45535430       -413.74282739       -203.52173034       -356.41548723
          0.10639742         -0.00840400        -69.99214032
 Traceless Quadrup. (au):
          2.03862653          2.03864111         -4.07726764         -0.00000188
          0.00194831         -0.00391504
 Charge=              0.0000 electrons
 Dipole moment (field-independent basis, Debye):
    X=              0.0000    Y=              0.0000    Z=              0.0000  Tot=              0.0000
 Quadrupole moment (field-independent basis, Debye-Ang):
   XX=            -32.1975   YY=            -32.1974   ZZ=            -40.4235
   XY=              0.0000   XZ=              0.0026   YZ=             -0.0053
 Traceless Quadrupole moment (field-independent basis, Debye-Ang):
   XX=              2.7420   YY=              2.7420   ZZ=             -5.4841
   XY=              0.0000   XZ=              0.0026   YZ=             -0.0053
 Octapole moment (field-independent basis, Debye-Ang**2):
  XXX=            -48.6285  YYY=           -125.1252  ZZZ=              0.0597  XYY=            -16.2095
  XXY=            -41.7084  XXZ=              0.0185  XZZ=            -20.3508  YZZ=            -52.3644
  YYZ=              0.0022  XYZ=              0.0007
 Hexadecapole moment (field-independent basis, Debye-Ang**3):
 XXXX=           -329.9015 YYYY=           -605.1112 ZZZZ=            -52.2240 XXXY=            -62.9931
 XXXZ=             -0.0001 YYYX=            -62.9931 YYYZ=              0.0875 ZZZX=             -0.0167
 ZZZY=              0.1715 XXYY=           -155.8354 XXZZ=            -76.6560 YYZZ=           -134.2432
 XXYZ=              0.0401 YYXZ=             -0.0032 ZZXY=            -26.3624
 N-N= 2.028986110856D+02 E-N=-9.434946380590D+02  KE= 2.306346209031D+02
 Entering OneElI...
 OneElI was handed  1610539173 working-precision words.
 Calculate electrostatic properties
    NBasis =   120  MinDer = 0  MaxDer = 0
    NGrid  =    12  NMatD  =   1
 Requested accuracy = 0.1000D-12
 PrsmSu:  NPrtUS=   6 ThrOK=T IAlg=1
 PRISM was handed   268384409 working-precision words and   885 shell-pairs
 PRISM was handed   268384409 working-precision words and   885 shell-pairs
 PRISM was handed   268384409 working-precision words and   885 shell-pairs
 PRISM was handed   268384409 working-precision words and   885 shell-pairs
 PRISM was handed   268384409 working-precision words and   885 shell-pairs
 PRISM was handed   268384409 working-precision words and   885 shell-pairs
 IPart=  5 NShTot=        1740 NBatch=         145 AvBLen=        12.0
 IPart=  4 NShTot=        1740 NBatch=         145 AvBLen=        12.0
 IPart=  1 NShTot=        1800 NBatch=         150 AvBLen=        12.0
 IPart=  3 NShTot=        1752 NBatch=         146 AvBLen=        12.0
 IPart=  2 NShTot=        1788 NBatch=         149 AvBLen=        12.0
 IPart=  0 NShTot=        1800 NBatch=         150 AvBLen=        12.0
 --------------------------------------------------------
       Center         ----      EFG at Nuclei      ----
                      3XX-RR        3YY-RR        3ZZ-RR
 --------------------------------------------------------
     1   Atom        0.144584      0.125703     -0.270286
     2   Atom        0.144587      0.125699     -0.270286
     3   Atom        0.116257      0.154028     -0.270286
     4   Atom        0.144583      0.125703     -0.270286
     5   Atom        0.144587      0.125699     -0.270286
     6   Atom        0.116258      0.154028     -0.270286
     7   Atom        0.030087     -0.188252      0.158165
     8   Atom        0.030125     -0.188289      0.158164
     9   Atom       -0.297459      0.139295      0.158165
    10   Atom        0.030087     -0.188251      0.158165
    11   Atom        0.030125     -0.188289      0.158164
    12   Atom       -0.297459      0.139295      0.158165
 --------------------------------------------------------
                        XY            XZ            YZ
 --------------------------------------------------------
     1   Atom       -0.016356      0.000143     -0.000259
     2   Atom        0.016354      0.000122     -0.000248
     3   Atom        0.000002      0.000123     -0.000272
     4   Atom       -0.016356      0.000143     -0.000259
     5   Atom        0.016354      0.000122     -0.000248
     6   Atom        0.000002      0.000123     -0.000272
     7   Atom       -0.189131      0.000080      0.000162
     8   Atom        0.189109     -0.000162      0.000282
     9   Atom        0.000022     -0.000145      0.000012
    10   Atom       -0.189131      0.000080      0.000161
    11   Atom        0.189109     -0.000162      0.000282
    12   Atom        0.000022     -0.000145      0.000012
 --------------------------------------------------------


 ---------------------------------------------------------------------------------
              Nuclear Quadrupole in Principal Axis System
 ---------------------------------------------------------------------------------

       Atom             a.u.   MegaHertz   Gauss  10(-4) cm-1        Axes

              Baa    -0.2703   -36.270   -12.942   -12.098 -0.0003  0.0006  1.0000
     1 C(13)  Bbb     0.1163    15.601     5.567     5.204  0.5001  0.8660 -0.0004
              Bcc     0.1540    20.669     7.375     6.894  0.8660 -0.5001  0.0006
 
              Baa    -0.2703   -36.270   -12.942   -12.098 -0.0003  0.0006  1.0000
     2 C(13)  Bbb     0.1163    15.601     5.567     5.204 -0.5000  0.8660 -0.0007
              Bcc     0.1540    20.669     7.375     6.894  0.8660  0.5000  0.0000
 
              Baa    -0.2703   -36.270   -12.942   -12.098 -0.0003  0.0006  1.0000
     3 C(13)  Bbb     0.1163    15.601     5.567     5.204  1.0000  0.0000  0.0003
              Bcc     0.1540    20.669     7.375     6.894  0.0000  1.0000 -0.0006
 
              Baa    -0.2703   -36.270   -12.942   -12.098 -0.0003  0.0006  1.0000
     4 C(13)  Bbb     0.1163    15.601     5.567     5.204  0.5001  0.8660 -0.0004
              Bcc     0.1540    20.669     7.375     6.894  0.8660 -0.5001  0.0006
 
              Baa    -0.2703   -36.270   -12.942   -12.098 -0.0003  0.0006  1.0000
     5 C(13)  Bbb     0.1163    15.601     5.567     5.204 -0.5000  0.8660 -0.0007
              Bcc     0.1540    20.669     7.375     6.894  0.8660  0.5000  0.0000
 
              Baa    -0.2703   -36.270   -12.942   -12.098 -0.0003  0.0006  1.0000
     6 C(13)  Bbb     0.1163    15.601     5.567     5.204  1.0000  0.0000  0.0003
              Bcc     0.1540    20.669     7.375     6.894  0.0000  1.0000 -0.0006
 
              Baa    -0.2975  -158.710   -56.632   -52.940  0.5000  0.8660 -0.0004
     7 H(1)   Bbb     0.1393    74.321    26.520    24.791  0.8660 -0.5000  0.0006
              Bcc     0.1582    84.389    30.112    28.149 -0.0003  0.0006  1.0000
 
              Baa    -0.2975  -158.710   -56.632   -52.940 -0.5000  0.8660 -0.0007
     8 H(1)   Bbb     0.1393    74.321    26.520    24.791  0.8661  0.5000  0.0000
              Bcc     0.1582    84.389    30.112    28.149 -0.0003  0.0006  1.0000
 
              Baa    -0.2975  -158.710   -56.632   -52.940  1.0000 -0.0001  0.0003
     9 H(1)   Bbb     0.1393    74.321    26.520    24.791  0.0001  1.0000 -0.0006
              Bcc     0.1582    84.389    30.112    28.149 -0.0003  0.0006  1.0000
 
              Baa    -0.2975  -158.710   -56.632   -52.940  0.5000  0.8660 -0.0004
    10 H(1)   Bbb     0.1393    74.321    26.520    24.791  0.8660 -0.5000  0.0006
              Bcc     0.1582    84.389    30.112    28.149 -0.0003  0.0006  1.0000
 
              Baa    -0.2975  -158.710   -56.632   -52.940 -0.5000  0.8660 -0.0007
    11 H(1)   Bbb     0.1393    74.321    26.520    24.791  0.8660  0.5000  0.0000
              Bcc     0.1582    84.389    30.112    28.149 -0.0003  0.0006  1.0000
 
              Baa    -0.2975  -158.710   -56.632   -52.940  1.0000 -0.0001  0.0003
    12 H(1)   Bbb     0.1393    74.321    26.520    24.791  0.0001  1.0000 -0.0006
              Bcc     0.1582    84.389    30.112    28.149 -0.0003  0.0006  1.0000
 

 ---------------------------------------------------------------------------------

 No NMR shielding tensors so no spin-rotation constants.
 Leave Link  601 at Thu Mar 31 11:42:38 2016, MaxMem= 1610612736 cpu:       1.5
 (Enter /usr/local/gaussian-a02/g09/l602.exe)
 Merz-Kollman atomic radii used.
 Atom Element Radius
    1     6    1.50
    2     6    1.50
    3     6    1.50
    4     6    1.50
    5     6    1.50
    6     6    1.50
    7     1    1.20
    8     1    1.20
    9     1    1.20
   10     1    1.20
   11     1    1.20
   12     1    1.20
 Generate VDW surfaces: Layer=10 Dens=17 Start= 1.400 Inc= 0.126

 **********************************************************************

            Electrostatic Properties Using The SCF Density

 **********************************************************************

       Atomic Center    1 is at  -0.196066  0.083955  0.000060
       Atomic Center    2 is at   1.202825  0.083884  0.000506
       Atomic Center    3 is at   1.902332  1.295325 -0.000047
       Atomic Center    4 is at   1.202947  2.506835 -0.001046
       Atomic Center    5 is at  -0.195944  2.506905 -0.001491
       Atomic Center    6 is at  -0.895451  1.295465 -0.000938
       Atomic Center    7 is at  -0.739751 -0.857626  0.000490
       Atomic Center    8 is at   1.746416 -0.857750  0.001281
       Atomic Center    9 is at   2.989607  1.295271  0.000299
       Atomic Center   10 is at   1.746632  3.448416 -0.001475
       Atomic Center   11 is at  -0.739536  3.448540 -0.002266
       Atomic Center   12 is at  -1.982726  1.295520 -0.001285
      ESP Fit Center   13 is at  -0.196066  0.083955  2.100060
      ESP Fit Center   14 is at   0.047729  0.083955  2.085861
      ESP Fit Center   15 is at  -0.074168  0.295087  2.085861
      ESP Fit Center   16 is at  -0.317964  0.295087  2.085861
      ESP Fit Center   17 is at  -0.439861  0.083955  2.085861
      ESP Fit Center   18 is at  -0.317964 -0.127178  2.085861
      ESP Fit Center   19 is at  -0.074168 -0.127178  2.085861
      ESP Fit Center   20 is at   0.288227  0.083955  2.043455
      ESP Fit Center   21 is at   0.223344  0.326101  2.043455
      ESP Fit Center   22 is at   0.046081  0.503365  2.043455
      ESP Fit Center   23 is at  -0.196066  0.568248  2.043455
      ESP Fit Center   24 is at  -0.438213  0.503365  2.043455
      ESP Fit Center   25 is at  -0.615476  0.326101  2.043455
      ESP Fit Center   26 is at  -0.680359  0.083955  2.043455
      ESP Fit Center   27 is at  -0.615476 -0.158192  2.043455
      ESP Fit Center   28 is at  -0.438213 -0.335456  2.043455
      ESP Fit Center   29 is at  -0.196066 -0.400339  2.043455
      ESP Fit Center   30 is at   0.046081 -0.335456  2.043455
      ESP Fit Center   31 is at   0.223344 -0.158192  2.043455
      ESP Fit Center   32 is at   0.478861  0.329608  1.973415
      ESP Fit Center   33 is at   0.354139  0.545632  1.973415
      ESP Fit Center   34 is at   0.163055  0.705971  1.973415
      ESP Fit Center   35 is at  -0.071345  0.791285  1.973415
      ESP Fit Center   36 is at  -0.320787  0.791285  1.973415
      ESP Fit Center   37 is at  -0.746272  0.545632  1.973415
      ESP Fit Center   38 is at  -0.870993  0.329608  1.973415
      ESP Fit Center   39 is at  -0.914308  0.083955  1.973415
      ESP Fit Center   40 is at  -0.870993 -0.161699  1.973415
      ESP Fit Center   41 is at  -0.746272 -0.377723  1.973415
      ESP Fit Center   42 is at  -0.555187 -0.538061  1.973415
      ESP Fit Center   43 is at  -0.320787 -0.623376  1.973415
      ESP Fit Center   44 is at  -0.071345 -0.623376  1.973415
      ESP Fit Center   45 is at   0.163055 -0.538061  1.973415
      ESP Fit Center   46 is at   0.354139 -0.377723  1.973415
      ESP Fit Center   47 is at   0.478861 -0.161699  1.973415
      ESP Fit Center   48 is at   0.470367  0.750387  1.876689
      ESP Fit Center   49 is at   0.275173  0.900165  1.876689
      ESP Fit Center   50 is at   0.047865  0.994319  1.876689
      ESP Fit Center   51 is at  -1.106430  0.327886  1.876689
      ESP Fit Center   52 is at  -1.138544  0.083955  1.876689
      ESP Fit Center   53 is at  -1.106430 -0.159977  1.876689
      ESP Fit Center   54 is at  -1.012276 -0.387285  1.876689
      ESP Fit Center   55 is at  -0.862499 -0.582478  1.876689
      ESP Fit Center   56 is at  -0.667305 -0.732256  1.876689
      ESP Fit Center   57 is at  -0.439997 -0.826409  1.876689
      ESP Fit Center   58 is at  -0.196066 -0.858524  1.876689
      ESP Fit Center   59 is at   0.047865 -0.826409  1.876689
      ESP Fit Center   60 is at   0.275173 -0.732256  1.876689
      ESP Fit Center   61 is at   0.470367 -0.582478  1.876689
      ESP Fit Center   62 is at   0.344463  1.103500  1.754585
      ESP Fit Center   63 is at  -1.343270  0.208721  1.754585
      ESP Fit Center   64 is at  -1.343270 -0.040811  1.754585
      ESP Fit Center   65 is at  -1.289628 -0.284509  1.754585
      ESP Fit Center   66 is at  -1.184853 -0.510978  1.754585
      ESP Fit Center   67 is at  -1.033842 -0.709629  1.754585
      ESP Fit Center   68 is at  -0.843658 -0.871173  1.754585
      ESP Fit Center   69 is at  -0.623194 -0.988056  1.754585
      ESP Fit Center   70 is at  -0.382757 -1.054812  1.754585
      ESP Fit Center   71 is at  -0.133591 -1.068322  1.754585
      ESP Fit Center   72 is at   0.112653 -1.027952  1.754585
      ESP Fit Center   73 is at   0.344463 -0.935591  1.754585
      ESP Fit Center   74 is at  -1.545920  0.083955  1.608754
      ESP Fit Center   75 is at  -1.522936 -0.164080  1.608754
      ESP Fit Center   76 is at  -1.454767 -0.403669  1.608754
      ESP Fit Center   77 is at  -1.343735 -0.626652  1.608754
      ESP Fit Center   78 is at  -0.320615 -1.260141  1.608754
      ESP Fit Center   79 is at  -0.071517 -1.260141  1.608754
      ESP Fit Center   80 is at   0.173339 -1.214370  1.608754
      ESP Fit Center   81 is at   0.405616 -1.124385  1.608754
      ESP Fit Center   82 is at  -1.718598 -0.038957  1.441168
      ESP Fit Center   83 is at  -1.679165 -0.281596  1.441168
      ESP Fit Center   84 is at  -1.601321 -0.514768  1.441168
      ESP Fit Center   85 is at  -0.011948 -1.432393  1.441168
      ESP Fit Center   86 is at   0.228907 -1.383222  1.441168
      ESP Fit Center   87 is at   0.458755 -1.296052  1.441168
      ESP Fit Center   88 is at  -1.840226 -0.282298  1.254093
      ESP Fit Center   89 is at   0.229990 -1.545732  1.254093
      ESP Fit Center   90 is at   0.462734 -1.466331  1.254093
      ESP Fit Center   91 is at  -1.997780 -0.163685  1.050060
      ESP Fit Center   92 is at   0.412964 -1.629691  1.050060
      ESP Fit Center   93 is at  -2.088761 -0.284648  0.831828
      ESP Fit Center   94 is at  -2.088761 -0.284648 -0.831707
      ESP Fit Center   95 is at  -1.997780 -0.163685 -1.049940
      ESP Fit Center   96 is at   0.412964 -1.629691 -1.049940
      ESP Fit Center   97 is at  -1.840226 -0.282298 -1.253973
      ESP Fit Center   98 is at   0.229990 -1.545732 -1.253973
      ESP Fit Center   99 is at   0.462734 -1.466331 -1.253973
      ESP Fit Center  100 is at  -1.718598 -0.038957 -1.441047
      ESP Fit Center  101 is at  -1.679165 -0.281596 -1.441047
      ESP Fit Center  102 is at  -1.601321 -0.514768 -1.441047
      ESP Fit Center  103 is at  -0.011948 -1.432393 -1.441047
      ESP Fit Center  104 is at   0.228907 -1.383222 -1.441047
      ESP Fit Center  105 is at   0.458755 -1.296052 -1.441047
      ESP Fit Center  106 is at  -1.545920  0.083955 -1.608633
      ESP Fit Center  107 is at  -1.522936 -0.164080 -1.608633
      ESP Fit Center  108 is at  -1.454767 -0.403669 -1.608633
      ESP Fit Center  109 is at  -1.343735 -0.626652 -1.608633
      ESP Fit Center  110 is at  -0.320615 -1.260141 -1.608633
      ESP Fit Center  111 is at  -0.071517 -1.260141 -1.608633
      ESP Fit Center  112 is at   0.173339 -1.214370 -1.608633
      ESP Fit Center  113 is at   0.405616 -1.124385 -1.608633
      ESP Fit Center  114 is at   0.344463  1.103500 -1.754464
      ESP Fit Center  115 is at  -1.343270  0.208721 -1.754464
      ESP Fit Center  116 is at  -1.343270 -0.040811 -1.754464
      ESP Fit Center  117 is at  -1.289628 -0.284509 -1.754464
      ESP Fit Center  118 is at  -1.184853 -0.510978 -1.754464
      ESP Fit Center  119 is at  -1.033842 -0.709629 -1.754464
      ESP Fit Center  120 is at  -0.843658 -0.871173 -1.754464
      ESP Fit Center  121 is at  -0.623194 -0.988056 -1.754464
      ESP Fit Center  122 is at  -0.382757 -1.054812 -1.754464
      ESP Fit Center  123 is at  -0.133591 -1.068322 -1.754464
      ESP Fit Center  124 is at   0.112653 -1.027952 -1.754464
      ESP Fit Center  125 is at   0.344463 -0.935591 -1.754464
      ESP Fit Center  126 is at   0.470367  0.750387 -1.876568
      ESP Fit Center  127 is at   0.275173  0.900165 -1.876568
      ESP Fit Center  128 is at   0.047865  0.994319 -1.876568
      ESP Fit Center  129 is at  -1.106430  0.327886 -1.876568
      ESP Fit Center  130 is at  -1.138544  0.083955 -1.876568
      ESP Fit Center  131 is at  -1.106430 -0.159977 -1.876568
      ESP Fit Center  132 is at  -1.012276 -0.387285 -1.876568
      ESP Fit Center  133 is at  -0.862499 -0.582478 -1.876568
      ESP Fit Center  134 is at  -0.667305 -0.732256 -1.876568
      ESP Fit Center  135 is at  -0.439997 -0.826409 -1.876568
      ESP Fit Center  136 is at  -0.196066 -0.858524 -1.876568
      ESP Fit Center  137 is at   0.047865 -0.826409 -1.876568
      ESP Fit Center  138 is at   0.275173 -0.732256 -1.876568
      ESP Fit Center  139 is at   0.470367 -0.582478 -1.876568
      ESP Fit Center  140 is at   0.478861  0.329608 -1.973294
      ESP Fit Center  141 is at   0.354139  0.545632 -1.973294
      ESP Fit Center  142 is at   0.163055  0.705971 -1.973294
      ESP Fit Center  143 is at  -0.071345  0.791285 -1.973294
      ESP Fit Center  144 is at  -0.320787  0.791285 -1.973294
      ESP Fit Center  145 is at  -0.746272  0.545632 -1.973294
      ESP Fit Center  146 is at  -0.870993  0.329608 -1.973294
      ESP Fit Center  147 is at  -0.914308  0.083955 -1.973294
      ESP Fit Center  148 is at  -0.870993 -0.161699 -1.973294
      ESP Fit Center  149 is at  -0.746272 -0.377723 -1.973294
      ESP Fit Center  150 is at  -0.555187 -0.538061 -1.973294
      ESP Fit Center  151 is at  -0.320787 -0.623376 -1.973294
      ESP Fit Center  152 is at  -0.071345 -0.623376 -1.973294
      ESP Fit Center  153 is at   0.163055 -0.538061 -1.973294
      ESP Fit Center  154 is at   0.354139 -0.377723 -1.973294
      ESP Fit Center  155 is at   0.478861 -0.161699 -1.973294
      ESP Fit Center  156 is at   0.288227  0.083955 -2.043334
      ESP Fit Center  157 is at   0.223344  0.326101 -2.043334
      ESP Fit Center  158 is at   0.046081  0.503365 -2.043334
      ESP Fit Center  159 is at  -0.196066  0.568248 -2.043334
      ESP Fit Center  160 is at  -0.438213  0.503365 -2.043334
      ESP Fit Center  161 is at  -0.615476  0.326101 -2.043334
      ESP Fit Center  162 is at  -0.680359  0.083955 -2.043334
      ESP Fit Center  163 is at  -0.615476 -0.158192 -2.043334
      ESP Fit Center  164 is at  -0.438213 -0.335456 -2.043334
      ESP Fit Center  165 is at  -0.196066 -0.400339 -2.043334
      ESP Fit Center  166 is at   0.046081 -0.335456 -2.043334
      ESP Fit Center  167 is at   0.223344 -0.158192 -2.043334
      ESP Fit Center  168 is at   0.047729  0.083955 -2.085740
      ESP Fit Center  169 is at  -0.074168  0.295087 -2.085740
      ESP Fit Center  170 is at  -0.317964  0.295087 -2.085740
      ESP Fit Center  171 is at  -0.439861  0.083955 -2.085740
      ESP Fit Center  172 is at  -0.317964 -0.127178 -2.085740
      ESP Fit Center  173 is at  -0.074168 -0.127178 -2.085740
      ESP Fit Center  174 is at  -0.196066  0.083955 -2.099940
      ESP Fit Center  175 is at   1.202825  0.083884  2.100506
      ESP Fit Center  176 is at   1.446620  0.083884  2.086307
      ESP Fit Center  177 is at   1.324723  0.295017  2.086307
      ESP Fit Center  178 is at   1.080928  0.295017  2.086307
      ESP Fit Center  179 is at   0.959030  0.083884  2.086307
      ESP Fit Center  180 is at   1.080928 -0.127248  2.086307
      ESP Fit Center  181 is at   1.324723 -0.127248  2.086307
      ESP Fit Center  182 is at   1.687118  0.083884  2.043900
      ESP Fit Center  183 is at   1.622235  0.326031  2.043900
      ESP Fit Center  184 is at   1.444972  0.503295  2.043900
      ESP Fit Center  185 is at   1.202825  0.568178  2.043900
      ESP Fit Center  186 is at   0.960678  0.503295  2.043900
      ESP Fit Center  187 is at   0.783415  0.326031  2.043900
      ESP Fit Center  188 is at   0.718532  0.083884  2.043900
      ESP Fit Center  189 is at   0.783415 -0.158262  2.043900
      ESP Fit Center  190 is at   0.960678 -0.335526  2.043900
      ESP Fit Center  191 is at   1.202825 -0.400409  2.043900
      ESP Fit Center  192 is at   1.444972 -0.335526  2.043900
      ESP Fit Center  193 is at   1.622235 -0.158262  2.043900
      ESP Fit Center  194 is at   1.921067  0.083884  1.973861
      ESP Fit Center  195 is at   1.877752  0.329538  1.973861
      ESP Fit Center  196 is at   1.753031  0.545562  1.973861
      ESP Fit Center  197 is at   1.327547  0.791215  1.973861
      ESP Fit Center  198 is at   1.078104  0.791215  1.973861
      ESP Fit Center  199 is at   0.843704  0.705901  1.973861
      ESP Fit Center  200 is at   0.652620  0.545562  1.973861
      ESP Fit Center  201 is at   0.527898  0.329538  1.973861
      ESP Fit Center  202 is at   0.527898 -0.161769  1.973861
      ESP Fit Center  203 is at   0.652620 -0.377793  1.973861
      ESP Fit Center  204 is at   0.843704 -0.538132  1.973861
      ESP Fit Center  205 is at   1.078104 -0.623446  1.973861
      ESP Fit Center  206 is at   1.327547 -0.623446  1.973861
      ESP Fit Center  207 is at   1.561946 -0.538132  1.973861
      ESP Fit Center  208 is at   1.753031 -0.377793  1.973861
      ESP Fit Center  209 is at   1.877752 -0.161769  1.973861
      ESP Fit Center  210 is at   2.145303  0.083884  1.877135
      ESP Fit Center  211 is at   2.113189  0.327816  1.877135
      ESP Fit Center  212 is at   0.958894  0.994249  1.877135
      ESP Fit Center  213 is at   0.731586  0.900095  1.877135
      ESP Fit Center  214 is at   0.536392  0.750317  1.877135
      ESP Fit Center  215 is at   0.536392 -0.582548  1.877135
      ESP Fit Center  216 is at   0.731586 -0.732326  1.877135
      ESP Fit Center  217 is at   0.958894 -0.826480  1.877135
      ESP Fit Center  218 is at   1.202825 -0.858594  1.877135
      ESP Fit Center  219 is at   1.446756 -0.826480  1.877135
      ESP Fit Center  220 is at   1.674064 -0.732326  1.877135
      ESP Fit Center  221 is at   1.869258 -0.582548  1.877135
      ESP Fit Center  222 is at   2.019035 -0.387355  1.877135
      ESP Fit Center  223 is at   2.113189 -0.160047  1.877135
      ESP Fit Center  224 is at   2.356794  0.083884  1.755030
      ESP Fit Center  225 is at   0.555233  1.039012  1.755030
      ESP Fit Center  226 is at   0.555233 -0.871243  1.755030
      ESP Fit Center  227 is at   0.775697 -0.988126  1.755030
      ESP Fit Center  228 is at   1.016134 -1.054883  1.755030
      ESP Fit Center  229 is at   1.265300 -1.068392  1.755030
      ESP Fit Center  230 is at   1.511544 -1.028022  1.755030
      ESP Fit Center  231 is at   1.743354 -0.935661  1.755030
      ESP Fit Center  232 is at   1.949889 -0.795627  1.755030
      ESP Fit Center  233 is at   2.121492 -0.614468  1.755030
      ESP Fit Center  234 is at   2.250139 -0.400654  1.755030
      ESP Fit Center  235 is at   2.329815 -0.164185  1.755030
      ESP Fit Center  236 is at   2.552679  0.083884  1.609199
      ESP Fit Center  237 is at   0.601143 -1.124455  1.609199
      ESP Fit Center  238 is at   0.833420 -1.214440  1.609199
      ESP Fit Center  239 is at   1.078276 -1.260211  1.609199
      ESP Fit Center  240 is at   1.327374 -1.260211  1.609199
      ESP Fit Center  241 is at   2.350494 -0.626722  1.609199
      ESP Fit Center  242 is at   2.461526 -0.403739  1.609199
      ESP Fit Center  243 is at   2.529695 -0.164151  1.609199
      ESP Fit Center  244 is at   0.661172 -1.344338  1.441613
      ESP Fit Center  245 is at   0.897289 -1.412731  1.441613
      ESP Fit Center  246 is at   2.651700 -0.399821  1.441613
      ESP Fit Center  247 is at   2.710529 -0.161141  1.441613
      ESP Fit Center  248 is at   0.658946 -1.510354  1.254539
      ESP Fit Center  249 is at   2.815864 -0.401407  1.254539
      ESP Fit Center  250 is at   2.869333 -0.161375  1.254539
      ESP Fit Center  251 is at   0.593795 -1.629762  1.050506
      ESP Fit Center  252 is at   3.004539 -0.163755  1.050506
      ESP Fit Center  253 is at   0.536874 -1.725721  0.832274
      ESP Fit Center  254 is at   0.536874 -1.725721 -0.831261
      ESP Fit Center  255 is at   0.593795 -1.629762 -1.049494
      ESP Fit Center  256 is at   3.004539 -0.163755 -1.049494
      ESP Fit Center  257 is at   0.658946 -1.510354 -1.253527
      ESP Fit Center  258 is at   2.815864 -0.401407 -1.253527
      ESP Fit Center  259 is at   2.869333 -0.161375 -1.253527
      ESP Fit Center  260 is at   0.661172 -1.344338 -1.440601
      ESP Fit Center  261 is at   0.897289 -1.412731 -1.440601
      ESP Fit Center  262 is at   2.651700 -0.399821 -1.440601
      ESP Fit Center  263 is at   2.710529 -0.161141 -1.440601
      ESP Fit Center  264 is at   2.552679  0.083884 -1.608187
      ESP Fit Center  265 is at   0.601143 -1.124455 -1.608187
      ESP Fit Center  266 is at   0.833420 -1.214440 -1.608187
      ESP Fit Center  267 is at   1.078276 -1.260211 -1.608187
      ESP Fit Center  268 is at   1.327374 -1.260211 -1.608187
      ESP Fit Center  269 is at   2.350494 -0.626722 -1.608187
      ESP Fit Center  270 is at   2.461526 -0.403739 -1.608187
      ESP Fit Center  271 is at   2.529695 -0.164151 -1.608187
      ESP Fit Center  272 is at   2.356794  0.083884 -1.754018
      ESP Fit Center  273 is at   0.555233  1.039012 -1.754018
      ESP Fit Center  274 is at   0.555233 -0.871243 -1.754018
      ESP Fit Center  275 is at   0.775697 -0.988126 -1.754018
      ESP Fit Center  276 is at   1.016134 -1.054883 -1.754018
      ESP Fit Center  277 is at   1.265300 -1.068392 -1.754018
      ESP Fit Center  278 is at   1.511544 -1.028022 -1.754018
      ESP Fit Center  279 is at   1.743354 -0.935661 -1.754018
      ESP Fit Center  280 is at   1.949889 -0.795627 -1.754018
      ESP Fit Center  281 is at   2.121492 -0.614468 -1.754018
      ESP Fit Center  282 is at   2.250139 -0.400654 -1.754018
      ESP Fit Center  283 is at   2.329815 -0.164185 -1.754018
      ESP Fit Center  284 is at   2.145303  0.083884 -1.876123
      ESP Fit Center  285 is at   2.113189  0.327816 -1.876123
      ESP Fit Center  286 is at   0.958894  0.994249 -1.876123
      ESP Fit Center  287 is at   0.731586  0.900095 -1.876123
      ESP Fit Center  288 is at   0.536392  0.750317 -1.876123
      ESP Fit Center  289 is at   0.536392 -0.582548 -1.876123
      ESP Fit Center  290 is at   0.731586 -0.732326 -1.876123
      ESP Fit Center  291 is at   0.958894 -0.826480 -1.876123
      ESP Fit Center  292 is at   1.202825 -0.858594 -1.876123
      ESP Fit Center  293 is at   1.446756 -0.826480 -1.876123
      ESP Fit Center  294 is at   1.674064 -0.732326 -1.876123
      ESP Fit Center  295 is at   1.869258 -0.582548 -1.876123
      ESP Fit Center  296 is at   2.019035 -0.387355 -1.876123
      ESP Fit Center  297 is at   2.113189 -0.160047 -1.876123
      ESP Fit Center  298 is at   1.921067  0.083884 -1.972848
      ESP Fit Center  299 is at   1.877752  0.329538 -1.972848
      ESP Fit Center  300 is at   1.753031  0.545562 -1.972848
      ESP Fit Center  301 is at   1.327547  0.791215 -1.972848
      ESP Fit Center  302 is at   1.078104  0.791215 -1.972848
      ESP Fit Center  303 is at   0.843704  0.705901 -1.972848
      ESP Fit Center  304 is at   0.652620  0.545562 -1.972848
      ESP Fit Center  305 is at   0.527898  0.329538 -1.972848
      ESP Fit Center  306 is at   0.527898 -0.161769 -1.972848
      ESP Fit Center  307 is at   0.652620 -0.377793 -1.972848
      ESP Fit Center  308 is at   0.843704 -0.538132 -1.972848
      ESP Fit Center  309 is at   1.078104 -0.623446 -1.972848
      ESP Fit Center  310 is at   1.327547 -0.623446 -1.972848
      ESP Fit Center  311 is at   1.561946 -0.538132 -1.972848
      ESP Fit Center  312 is at   1.753031 -0.377793 -1.972848
      ESP Fit Center  313 is at   1.877752 -0.161769 -1.972848
      ESP Fit Center  314 is at   1.687118  0.083884 -2.042888
      ESP Fit Center  315 is at   1.622235  0.326031 -2.042888
      ESP Fit Center  316 is at   1.444972  0.503295 -2.042888
      ESP Fit Center  317 is at   1.202825  0.568178 -2.042888
      ESP Fit Center  318 is at   0.960678  0.503295 -2.042888
      ESP Fit Center  319 is at   0.783415  0.326031 -2.042888
      ESP Fit Center  320 is at   0.718532  0.083884 -2.042888
      ESP Fit Center  321 is at   0.783415 -0.158262 -2.042888
      ESP Fit Center  322 is at   0.960678 -0.335526 -2.042888
      ESP Fit Center  323 is at   1.202825 -0.400409 -2.042888
      ESP Fit Center  324 is at   1.444972 -0.335526 -2.042888
      ESP Fit Center  325 is at   1.622235 -0.158262 -2.042888
      ESP Fit Center  326 is at   1.446620  0.083884 -2.085295
      ESP Fit Center  327 is at   1.324723  0.295017 -2.085295
      ESP Fit Center  328 is at   1.080928  0.295017 -2.085295
      ESP Fit Center  329 is at   0.959030  0.083884 -2.085295
      ESP Fit Center  330 is at   1.080928 -0.127248 -2.085295
      ESP Fit Center  331 is at   1.324723 -0.127248 -2.085295
      ESP Fit Center  332 is at   1.202825  0.083884 -2.099494
      ESP Fit Center  333 is at   1.902332  1.295325  2.099953
      ESP Fit Center  334 is at   2.146127  1.295325  2.085753
      ESP Fit Center  335 is at   2.024229  1.506458  2.085753
      ESP Fit Center  336 is at   1.780434  1.506458  2.085753
      ESP Fit Center  337 is at   1.658537  1.295325  2.085753
      ESP Fit Center  338 is at   1.780434  1.084192  2.085753
      ESP Fit Center  339 is at   2.024229  1.084192  2.085753
      ESP Fit Center  340 is at   2.386625  1.295325  2.043347
      ESP Fit Center  341 is at   2.321742  1.537472  2.043347
      ESP Fit Center  342 is at   2.144478  1.714735  2.043347
      ESP Fit Center  343 is at   1.902332  1.779618  2.043347
      ESP Fit Center  344 is at   1.660185  1.714735  2.043347
      ESP Fit Center  345 is at   1.482921  1.537472  2.043347
      ESP Fit Center  346 is at   1.418038  1.295325  2.043347
      ESP Fit Center  347 is at   1.482921  1.053178  2.043347
      ESP Fit Center  348 is at   1.660185  0.875915  2.043347
      ESP Fit Center  349 is at   1.902332  0.811032  2.043347
      ESP Fit Center  350 is at   2.144478  0.875915  2.043347
      ESP Fit Center  351 is at   2.321742  1.053178  2.043347
      ESP Fit Center  352 is at   2.620574  1.295325  1.973307
      ESP Fit Center  353 is at   2.577259  1.540978  1.973307
      ESP Fit Center  354 is at   2.452537  1.757002  1.973307
      ESP Fit Center  355 is at   2.261453  1.917341  1.973307
      ESP Fit Center  356 is at   2.027053  2.002656  1.973307
      ESP Fit Center  357 is at   1.777610  2.002656  1.973307
      ESP Fit Center  358 is at   1.352126  1.757002  1.973307
      ESP Fit Center  359 is at   1.227405  1.540978  1.973307
      ESP Fit Center  360 is at   1.184089  1.295325  1.973307
      ESP Fit Center  361 is at   1.227405  1.049672  1.973307
      ESP Fit Center  362 is at   1.352126  0.833648  1.973307
      ESP Fit Center  363 is at   1.777610  0.587994  1.973307
      ESP Fit Center  364 is at   2.027053  0.587994  1.973307
      ESP Fit Center  365 is at   2.261453  0.673309  1.973307
      ESP Fit Center  366 is at   2.452537  0.833648  1.973307
      ESP Fit Center  367 is at   2.577259  1.049672  1.973307
      ESP Fit Center  368 is at   2.844810  1.295325  1.876581
      ESP Fit Center  369 is at   2.812696  1.539256  1.876581
      ESP Fit Center  370 is at   2.718542  1.766564  1.876581
      ESP Fit Center  371 is at   2.568764  1.961758  1.876581
      ESP Fit Center  372 is at   2.373571  2.111535  1.876581
      ESP Fit Center  373 is at   2.146263  2.205689  1.876581
      ESP Fit Center  374 is at   0.991968  1.539256  1.876581
      ESP Fit Center  375 is at   0.959853  1.295325  1.876581
      ESP Fit Center  376 is at   0.991968  1.051394  1.876581
      ESP Fit Center  377 is at   2.146263  0.384961  1.876581
      ESP Fit Center  378 is at   2.373571  0.479115  1.876581
      ESP Fit Center  379 is at   2.568764  0.628892  1.876581
      ESP Fit Center  380 is at   2.718542  0.824086  1.876581
      ESP Fit Center  381 is at   2.812696  1.051394  1.876581
      ESP Fit Center  382 is at   3.056301  1.295325  1.754477
      ESP Fit Center  383 is at   3.029321  1.543394  1.754477
      ESP Fit Center  384 is at   2.949645  1.779864  1.754477
      ESP Fit Center  385 is at   2.820998  1.993677  1.754477
      ESP Fit Center  386 is at   2.649395  2.174836  1.754477
      ESP Fit Center  387 is at   2.442860  2.314870  1.754477
      ESP Fit Center  388 is at   0.755127  1.420091  1.754477
      ESP Fit Center  389 is at   0.755127  1.170559  1.754477
      ESP Fit Center  390 is at   2.442860  0.275780  1.754477
      ESP Fit Center  391 is at   2.649395  0.415814  1.754477
      ESP Fit Center  392 is at   2.820998  0.596973  1.754477
      ESP Fit Center  393 is at   2.949645  0.810786  1.754477
      ESP Fit Center  394 is at   3.029321  1.047256  1.754477
      ESP Fit Center  395 is at   3.161033  1.782949  1.608646
      ESP Fit Center  396 is at   3.050001  2.005932  1.608646
      ESP Fit Center  397 is at   2.899886  2.204716  1.608646
      ESP Fit Center  398 is at   2.715800  2.372532  1.608646
      ESP Fit Center  399 is at   0.552478  1.295325  1.608646
      ESP Fit Center  400 is at   2.715800  0.218118  1.608646
      ESP Fit Center  401 is at   2.899886  0.385934  1.608646
      ESP Fit Center  402 is at   3.050001  0.584718  1.608646
      ESP Fit Center  403 is at   3.161033  0.807702  1.608646
      ESP Fit Center  404 is at   3.123468  2.212950  1.441060
      ESP Fit Center  405 is at   2.960457  2.396951  1.441060
      ESP Fit Center  406 is at   2.770042  2.552420  1.441060
      ESP Fit Center  407 is at   2.770042  0.038230  1.441060
      ESP Fit Center  408 is at   2.960457  0.193699  1.441060
      ESP Fit Center  409 is at   3.123468  0.377700  1.441060
      ESP Fit Center  410 is at   3.156870  2.419396  1.253986
      ESP Fit Center  411 is at   2.979834  2.590079  1.253986
      ESP Fit Center  412 is at   2.979834  0.000571  1.253986
      ESP Fit Center  413 is at   3.156870  0.171254  1.253986
      ESP Fit Center  414 is at   3.143659  2.624462  1.049953
      ESP Fit Center  415 is at   3.143659 -0.033812  1.049953
      ESP Fit Center  416 is at   3.143659  2.624462 -1.050047
      ESP Fit Center  417 is at   3.143659 -0.033812 -1.050047
      ESP Fit Center  418 is at   3.156870  2.419396 -1.254080
      ESP Fit Center  419 is at   2.979834  2.590079 -1.254080
      ESP Fit Center  420 is at   2.979834  0.000571 -1.254080
      ESP Fit Center  421 is at   3.156870  0.171254 -1.254080
      ESP Fit Center  422 is at   3.123468  2.212950 -1.441155
      ESP Fit Center  423 is at   2.960457  2.396951 -1.441155
      ESP Fit Center  424 is at   2.770042  2.552420 -1.441155
      ESP Fit Center  425 is at   2.770042  0.038230 -1.441155
      ESP Fit Center  426 is at   2.960457  0.193699 -1.441155
      ESP Fit Center  427 is at   3.123468  0.377700 -1.441155
      ESP Fit Center  428 is at   3.161033  1.782949 -1.608740
      ESP Fit Center  429 is at   3.050001  2.005932 -1.608740
      ESP Fit Center  430 is at   2.899886  2.204716 -1.608740
      ESP Fit Center  431 is at   2.715800  2.372532 -1.608740
      ESP Fit Center  432 is at   0.552478  1.295325 -1.608740
      ESP Fit Center  433 is at   2.715800  0.218118 -1.608740
      ESP Fit Center  434 is at   2.899886  0.385934 -1.608740
      ESP Fit Center  435 is at   3.050001  0.584718 -1.608740
      ESP Fit Center  436 is at   3.161033  0.807702 -1.608740
      ESP Fit Center  437 is at   3.056301  1.295325 -1.754572
      ESP Fit Center  438 is at   3.029321  1.543394 -1.754572
      ESP Fit Center  439 is at   2.949645  1.779864 -1.754572
      ESP Fit Center  440 is at   2.820998  1.993677 -1.754572
      ESP Fit Center  441 is at   2.649395  2.174836 -1.754572
      ESP Fit Center  442 is at   2.442860  2.314870 -1.754572
[...]
 **** Fit       0.000889
 **** Fit       0.000874
 **** Fit       0.000828
 **** Fit       0.000751
 **** Fit       0.001165
 **** Fit       0.001255
 **** Fit       0.001323
 **** Fit       0.001369
 **** Fit       0.001394
 **** Fit       0.001398
 **** Fit       0.001380
 **** Fit       0.001341
 **** Fit       0.001280
 **** Fit       0.001197
 **** Fit       0.001586
 **** Fit       0.001665
 **** Fit       0.001730
 **** Fit       0.001782
 **** Fit       0.001819
 **** Fit       0.001842
 **** Fit       0.001850
 **** Fit       0.001842
 **** Fit       0.001819
 **** Fit       0.001782
 **** Fit       0.001730
 **** Fit       0.001665
 **** Fit       0.001586
 **** Fit       0.002007
 **** Fit       0.002059
 **** Fit       0.002108
 **** Fit       0.002151
 **** Fit       0.002188
 **** Fit       0.002216
 **** Fit       0.002235
 **** Fit       0.002243
 **** Fit       0.002242
 **** Fit       0.002230
 **** Fit       0.002208
 **** Fit       0.002176
 **** Fit       0.002138
 **** Fit       0.002092
 **** Fit       0.002042
 **** Fit       0.002443
 **** Fit       0.002456
 **** Fit       0.002477
 **** Fit       0.002501
 **** Fit       0.002525
 **** Fit       0.002548
 **** Fit       0.002566
 **** Fit       0.002578
 **** Fit       0.002584
 **** Fit       0.002583
 **** Fit       0.002575
 **** Fit       0.002560
 **** Fit       0.002541
 **** Fit       0.002518
 **** Fit       0.002493
 **** Fit       0.002470
 **** Fit       0.002451
 **** Fit       0.002842
 **** Fit       0.002826
 **** Fit       0.002824
 **** Fit       0.002830
 **** Fit       0.002840
 **** Fit       0.002851
 **** Fit       0.002862
 **** Fit       0.002869
 **** Fit       0.002873
 **** Fit       0.002872
 **** Fit       0.002867
 **** Fit       0.002859
 **** Fit       0.002848
 **** Fit       0.002836
 **** Fit       0.002827
 **** Fit       0.002824
 **** Fit       0.002830
 **** Fit       0.002851
 **** Fit       0.003201
 **** Fit       0.003148
 **** Fit       0.003117
 **** Fit       0.003102
 **** Fit       0.003097
 **** Fit       0.003098
 **** Fit       0.003102
 **** Fit       0.003107
 **** Fit       0.003110
 **** Fit       0.003111
 **** Fit       0.003110
 **** Fit       0.003107
 **** Fit       0.003102
 **** Fit       0.003098
 **** Fit       0.003097
 **** Fit       0.003102
 **** Fit       0.003117
 **** Fit       0.003148
 **** Fit       0.003202
 **** Fit       0.003527
 **** Fit       0.003434
 **** Fit       0.003372
 **** Fit       0.003334
 **** Fit       0.003313
 **** Fit       0.003302
 **** Fit       0.003298
 **** Fit       0.003298
 **** Fit       0.003299
 **** Fit       0.003300
 **** Fit       0.003301
 **** Fit       0.003300
 **** Fit       0.003299
 **** Fit       0.003298
 **** Fit       0.003300
 **** Fit       0.003308
 **** Fit       0.003326
 **** Fit       0.003358
 **** Fit       0.003410
 **** Fit       0.003492
 **** Fit       0.003613
 **** Fit       0.003811
 **** Fit       0.003678
 **** Fit       0.003587
 **** Fit       0.003526
 **** Fit       0.003487
 **** Fit       0.003464
 **** Fit       0.003451
 **** Fit       0.003445
 **** Fit       0.003442
 **** Fit       0.003442
 **** Fit       0.003442
 **** Fit       0.003442
 **** Fit       0.003442
 **** Fit       0.003443
 **** Fit       0.003446
 **** Fit       0.003454
 **** Fit       0.003470
 **** Fit       0.003498
 **** Fit       0.003544
 **** Fit       0.003614
 **** Fit       0.003718
 **** Fit       0.003867
 **** Fit       0.004006
 **** Fit       0.003846
 **** Fit       0.003734
 **** Fit       0.003658
 **** Fit       0.003607
 **** Fit       0.003575
 **** Fit       0.003555
 **** Fit       0.003544
 **** Fit       0.003539
 **** Fit       0.003537
 **** Fit       0.003536
 **** Fit       0.003536
 **** Fit       0.003536
 **** Fit       0.003538
 **** Fit       0.003542
 **** Fit       0.003551
 **** Fit       0.003567
 **** Fit       0.003594
 **** Fit       0.003638
 **** Fit       0.003706
 **** Fit       0.003805
 **** Fit       0.003947
 **** Fit       0.004089
 **** Fit       0.003919
 **** Fit       0.003800
 **** Fit       0.003718
 **** Fit       0.003663
 **** Fit       0.003628
 **** Fit       0.003606
 **** Fit       0.003594
 **** Fit       0.003587
 **** Fit       0.003584
 **** Fit       0.003583
 **** Fit       0.003583
 **** Fit       0.003583
 **** Fit       0.003586
 **** Fit       0.003591
 **** Fit       0.003601
 **** Fit       0.003619
 **** Fit       0.003649
 **** Fit       0.003697
 **** Fit       0.003769
 **** Fit       0.003875
 **** Fit       0.004026
 **** Fit       0.004089
 **** Fit       0.003919
 **** Fit       0.003800
 **** Fit       0.003718
 **** Fit       0.003663
 **** Fit       0.003628
 **** Fit       0.003607
 **** Fit       0.003594
 **** Fit       0.003588
 **** Fit       0.003584
 **** Fit       0.003583
 **** Fit       0.003583
 **** Fit       0.003584
 **** Fit       0.003586
 **** Fit       0.003591
 **** Fit       0.003602
 **** Fit       0.003620
 **** Fit       0.003650
 **** Fit       0.003697
 **** Fit       0.003769
 **** Fit       0.003875
 **** Fit       0.004026
 **** Fit       0.004007
 **** Fit       0.003847
 **** Fit       0.003736
 **** Fit       0.003659
 **** Fit       0.003608
 **** Fit       0.003576
 **** Fit       0.003556
 **** Fit       0.003546
 **** Fit       0.003540
 **** Fit       0.003538
 **** Fit       0.003537
 **** Fit       0.003537
 **** Fit       0.003537
 **** Fit       0.003539
 **** Fit       0.003543
 **** Fit       0.003552
 **** Fit       0.003568
 **** Fit       0.003596
 **** Fit       0.003640
 **** Fit       0.003707
 **** Fit       0.003806
 **** Fit       0.003948
 **** Fit       0.003813
 **** Fit       0.003680
 **** Fit       0.003589
 **** Fit       0.003528
 **** Fit       0.003489
 **** Fit       0.003466
 **** Fit       0.003453
 **** Fit       0.003447
 **** Fit       0.003444
 **** Fit       0.003444
 **** Fit       0.003444
 **** Fit       0.003444
 **** Fit       0.003444
 **** Fit       0.003445
 **** Fit       0.003448
 **** Fit       0.003456
 **** Fit       0.003472
 **** Fit       0.003500
 **** Fit       0.003546
 **** Fit       0.003616
 **** Fit       0.003719
 **** Fit       0.003869
 **** Fit       0.003530
 **** Fit       0.003437
 **** Fit       0.003375
 **** Fit       0.003337
 **** Fit       0.003316
 **** Fit       0.003305
 **** Fit       0.003301
 **** Fit       0.003301
 **** Fit       0.003302
 **** Fit       0.003303
 **** Fit       0.003304
 **** Fit       0.003303
 **** Fit       0.003301
 **** Fit       0.003301
 **** Fit       0.003303
 **** Fit       0.003311
 **** Fit       0.003329
 **** Fit       0.003360
 **** Fit       0.003413
 **** Fit       0.003494
 **** Fit       0.003615
 **** Fit       0.003205
 **** Fit       0.003152
 **** Fit       0.003121
 **** Fit       0.003106
 **** Fit       0.003101
 **** Fit       0.003102
 **** Fit       0.003106
 **** Fit       0.003111
 **** Fit       0.003114
 **** Fit       0.003115
 **** Fit       0.003114
 **** Fit       0.003111
 **** Fit       0.003106
 **** Fit       0.003102
 **** Fit       0.003101
 **** Fit       0.003105
 **** Fit       0.003121
 **** Fit       0.003152
 **** Fit       0.003205
 **** Fit       0.002847
 **** Fit       0.002831
 **** Fit       0.002829
 **** Fit       0.002835
 **** Fit       0.002845
 **** Fit       0.002856
 **** Fit       0.002866
 **** Fit       0.002874
 **** Fit       0.002878
 **** Fit       0.002877
 **** Fit       0.002872
 **** Fit       0.002863
 **** Fit       0.002852
 **** Fit       0.002841
 **** Fit       0.002832
 **** Fit       0.002828
 **** Fit       0.002834
 **** Fit       0.002855
 **** Fit       0.002448
 **** Fit       0.002462
 **** Fit       0.002483
 **** Fit       0.002507
 **** Fit       0.002531
 **** Fit       0.002553
 **** Fit       0.002572
 **** Fit       0.002584
 **** Fit       0.002590
 **** Fit       0.002589
 **** Fit       0.002580
 **** Fit       0.002566
 **** Fit       0.002546
 **** Fit       0.002523
 **** Fit       0.002498
 **** Fit       0.002475
 **** Fit       0.002456
 **** Fit       0.002014
 **** Fit       0.002066
 **** Fit       0.002115
 **** Fit       0.002158
 **** Fit       0.002194
 **** Fit       0.002222
 **** Fit       0.002241
 **** Fit       0.002250
 **** Fit       0.002248
 **** Fit       0.002236
 **** Fit       0.002214
 **** Fit       0.002183
 **** Fit       0.002144
 **** Fit       0.002099
 **** Fit       0.002049
 **** Fit       0.001594
 **** Fit       0.001672
 **** Fit       0.001738
 **** Fit       0.001789
 **** Fit       0.001827
 **** Fit       0.001849
 **** Fit       0.001857
 **** Fit       0.001849
 **** Fit       0.001827
 **** Fit       0.001789
 **** Fit       0.001737
 **** Fit       0.001672
 **** Fit       0.001593
 **** Fit       0.001174
 **** Fit       0.001263
 **** Fit       0.001331
 **** Fit       0.001378
 **** Fit       0.001403
 **** Fit       0.001406
 **** Fit       0.001388
 **** Fit       0.001349
 **** Fit       0.001288
 **** Fit       0.001206
 **** Fit       0.000761
 **** Fit       0.000838
 **** Fit       0.000883
 **** Fit       0.000899
 **** Fit       0.000883
 **** Fit       0.000838
 **** Fit       0.000760
 **** Fit       0.000795
 **** Fit       0.000857
 **** Fit       0.000888
 **** Fit       0.000888
 **** Fit       0.000858
 **** Fit       0.000797
 **** Fit       0.001130
 **** Fit       0.001228
 **** Fit       0.001304
 **** Fit       0.001358
 **** Fit       0.001390
 **** Fit       0.001401
 **** Fit       0.001391
 **** Fit       0.001359
 **** Fit       0.001306
 **** Fit       0.001231
 **** Fit       0.001134
 **** Fit       0.001586
 **** Fit       0.001665
 **** Fit       0.001731
 **** Fit       0.001783
 **** Fit       0.001821
 **** Fit       0.001844
 **** Fit       0.001852
 **** Fit       0.001844
 **** Fit       0.001822
 **** Fit       0.001785
 **** Fit       0.001733
 **** Fit       0.001668
 **** Fit       0.001590
 **** Fit       0.002024
 **** Fit       0.002076
 **** Fit       0.002123
 **** Fit       0.002165
 **** Fit       0.002199
 **** Fit       0.002225
 **** Fit       0.002240
 **** Fit       0.002246
 **** Fit       0.002241
 **** Fit       0.002226
 **** Fit       0.002201
 **** Fit       0.002167
 **** Fit       0.002126
 **** Fit       0.002079
 **** Fit       0.002029
 **** Fit       0.002453
 **** Fit       0.002473
 **** Fit       0.002497
 **** Fit       0.002522
 **** Fit       0.002545
 **** Fit       0.002564
 **** Fit       0.002578
 **** Fit       0.002585
 **** Fit       0.002585
 **** Fit       0.002579
 **** Fit       0.002565
 **** Fit       0.002547
 **** Fit       0.002524
 **** Fit       0.002500
 **** Fit       0.002476
 **** Fit       0.002457
 **** Fit       0.002861
 **** Fit       0.002834
 **** Fit       0.002824
 **** Fit       0.002825
 **** Fit       0.002833
 **** Fit       0.002844
 **** Fit       0.002856
 **** Fit       0.002866
 **** Fit       0.002872
 **** Fit       0.002874
 **** Fit       0.002872
 **** Fit       0.002866
 **** Fit       0.002857
 **** Fit       0.002846
 **** Fit       0.002835
 **** Fit       0.002828
 **** Fit       0.002827
 **** Fit       0.002838
 **** Fit       0.002866
 **** Fit       0.003201
 **** Fit       0.003147
 **** Fit       0.003117
 **** Fit       0.003102
 **** Fit       0.003097
 **** Fit       0.003099
 **** Fit       0.003103
 **** Fit       0.003108
 **** Fit       0.003111
 **** Fit       0.003112
 **** Fit       0.003111
 **** Fit       0.003108
 **** Fit       0.003104
 **** Fit       0.003100
 **** Fit       0.003099
 **** Fit       0.003104
 **** Fit       0.003119
 **** Fit       0.003151
 **** Fit       0.003205
 **** Fit       0.003566
 **** Fit       0.003460
 **** Fit       0.003389
 **** Fit       0.003345
 **** Fit       0.003319
 **** Fit       0.003305
 **** Fit       0.003299
 **** Fit       0.003298
 **** Fit       0.003299
 **** Fit       0.003301
 **** Fit       0.003301
 **** Fit       0.003301
 **** Fit       0.003300
 **** Fit       0.003299
 **** Fit       0.003300
 **** Fit       0.003306
 **** Fit       0.003320
 **** Fit       0.003347
 **** Fit       0.003392
 **** Fit       0.003463
 **** Fit       0.003570
 **** Fit       0.003761
 **** Fit       0.003643
 **** Fit       0.003563
 **** Fit       0.003511
 **** Fit       0.003478
 **** Fit       0.003459
 **** Fit       0.003449
 **** Fit       0.003444
 **** Fit       0.003442
 **** Fit       0.003442
 **** Fit       0.003442
 **** Fit       0.003442
 **** Fit       0.003443
 **** Fit       0.003444
 **** Fit       0.003449
 **** Fit       0.003460
 **** Fit       0.003479
 **** Fit       0.003512
 **** Fit       0.003565
 **** Fit       0.003646
 **** Fit       0.003763
 **** Fit       0.003975
 **** Fit       0.003824
 **** Fit       0.003719
 **** Fit       0.003648
 **** Fit       0.003600
 **** Fit       0.003571
 **** Fit       0.003553
 **** Fit       0.003543
 **** Fit       0.003539
 **** Fit       0.003537
 **** Fit       0.003536
 **** Fit       0.003536
 **** Fit       0.003537
 **** Fit       0.003539
 **** Fit       0.003544
 **** Fit       0.003553
 **** Fit       0.003571
 **** Fit       0.003601
 **** Fit       0.003648
 **** Fit       0.003720
 **** Fit       0.003826
 **** Fit       0.003977
 **** Fit       0.004056
 **** Fit       0.003896
 **** Fit       0.003784
 **** Fit       0.003707
 **** Fit       0.003656
 **** Fit       0.003623
 **** Fit       0.003604
 **** Fit       0.003592
 **** Fit       0.003587
 **** Fit       0.003584
 **** Fit       0.003583
 **** Fit       0.003583
 **** Fit       0.003584
 **** Fit       0.003587
 **** Fit       0.003592
 **** Fit       0.003604
 **** Fit       0.003624
 **** Fit       0.003656
 **** Fit       0.003707
 **** Fit       0.003784
 **** Fit       0.003896
 **** Fit       0.004057
 **** Fit       0.004057
 **** Fit       0.003896
 **** Fit       0.003784
 **** Fit       0.003707
 **** Fit       0.003656
 **** Fit       0.003624
 **** Fit       0.003604
 **** Fit       0.003593
 **** Fit       0.003587
 **** Fit       0.003584
 **** Fit       0.003583
 **** Fit       0.003583
 **** Fit       0.003584
 **** Fit       0.003587
 **** Fit       0.003593
 **** Fit       0.003604
 **** Fit       0.003624
 **** Fit       0.003656
 **** Fit       0.003707
 **** Fit       0.003784
 **** Fit       0.003896
 **** Fit       0.004056
 **** Fit       0.003977
 **** Fit       0.003826
 **** Fit       0.003721
 **** Fit       0.003649
 **** Fit       0.003602
 **** Fit       0.003572
 **** Fit       0.003554
 **** Fit       0.003544
 **** Fit       0.003539
 **** Fit       0.003537
 **** Fit       0.003537
 **** Fit       0.003537
 **** Fit       0.003537
 **** Fit       0.003539
 **** Fit       0.003544
 **** Fit       0.003554
 **** Fit       0.003571
 **** Fit       0.003601
 **** Fit       0.003648
 **** Fit       0.003720
 **** Fit       0.003825
 **** Fit       0.003976
 **** Fit       0.003764
 **** Fit       0.003646
 **** Fit       0.003566
 **** Fit       0.003513
 **** Fit       0.003480
 **** Fit       0.003461
 **** Fit       0.003450
 **** Fit       0.003445
 **** Fit       0.003444
 **** Fit       0.003443
 **** Fit       0.003443
 **** Fit       0.003443
 **** Fit       0.003443
 **** Fit       0.003445
 **** Fit       0.003449
 **** Fit       0.003460
 **** Fit       0.003479
 **** Fit       0.003512
 **** Fit       0.003564
 **** Fit       0.003644
 **** Fit       0.003762
 **** Fit       0.003571
 **** Fit       0.003464
 **** Fit       0.003393
 **** Fit       0.003348
 **** Fit       0.003322
 **** Fit       0.003308
 **** Fit       0.003302
 **** Fit       0.003300
 **** Fit       0.003301
 **** Fit       0.003302
 **** Fit       0.003303
 **** Fit       0.003302
 **** Fit       0.003301
 **** Fit       0.003300
 **** Fit       0.003301
 **** Fit       0.003306
 **** Fit       0.003320
 **** Fit       0.003346
 **** Fit       0.003391
 **** Fit       0.003461
 **** Fit       0.003567
 **** Fit       0.003206
 **** Fit       0.003152
 **** Fit       0.003121
 **** Fit       0.003105
 **** Fit       0.003100
 **** Fit       0.003101
 **** Fit       0.003105
 **** Fit       0.003110
 **** Fit       0.003113
 **** Fit       0.003114
 **** Fit       0.003113
 **** Fit       0.003109
 **** Fit       0.003104
 **** Fit       0.003100
 **** Fit       0.003099
 **** Fit       0.003103
 **** Fit       0.003118
 **** Fit       0.003149
 **** Fit       0.003202
 **** Fit       0.002868
 **** Fit       0.002840
 **** Fit       0.002829
 **** Fit       0.002830
 **** Fit       0.002837
 **** Fit       0.002848
 **** Fit       0.002859
 **** Fit       0.002868
 **** Fit       0.002875
 **** Fit       0.002877
 **** Fit       0.002874
 **** Fit       0.002868
 **** Fit       0.002858
 **** Fit       0.002846
 **** Fit       0.002835
 **** Fit       0.002827
 **** Fit       0.002826
 **** Fit       0.002836
 **** Fit       0.002863
 **** Fit       0.002460
 **** Fit       0.002479
 **** Fit       0.002502
 **** Fit       0.002527
 **** Fit       0.002549
 **** Fit       0.002568
 **** Fit       0.002581
 **** Fit       0.002588
 **** Fit       0.002588
 **** Fit       0.002580
 **** Fit       0.002567
 **** Fit       0.002548
 **** Fit       0.002525
 **** Fit       0.002500
 **** Fit       0.002476
 **** Fit       0.002456
 **** Fit       0.002032
 **** Fit       0.002082
 **** Fit       0.002129
 **** Fit       0.002170
 **** Fit       0.002204
 **** Fit       0.002228
 **** Fit       0.002244
 **** Fit       0.002249
 **** Fit       0.002243
 **** Fit       0.002227
 **** Fit       0.002202
 **** Fit       0.002168
 **** Fit       0.002126
 **** Fit       0.002079
 **** Fit       0.002027
 **** Fit       0.001594
 **** Fit       0.001672
 **** Fit       0.001737
 **** Fit       0.001788
 **** Fit       0.001825
 **** Fit       0.001848
 **** Fit       0.001855
 **** Fit       0.001847
 **** Fit       0.001824
 **** Fit       0.001786
 **** Fit       0.001734
 **** Fit       0.001668
 **** Fit       0.001589
 **** Fit       0.001138
 **** Fit       0.001235
 **** Fit       0.001310
 **** Fit       0.001363
 **** Fit       0.001395
 **** Fit       0.001405
 **** Fit       0.001394
 **** Fit       0.001361
 **** Fit       0.001308
 **** Fit       0.001232
 **** Fit       0.001134
 **** Fit       0.000801
 **** Fit       0.000862
 **** Fit       0.000892
 **** Fit       0.000892
 **** Fit       0.000861
 **** Fit       0.000799
 -----------------------------------------------------------------
 Leave Link  602 at Thu Mar 31 11:42:41 2016, MaxMem= 1610612736 cpu:       9.9
 (Enter /usr/local/gaussian-a02/g09/l9999.exe)

 Test job not archived.
 1\1\GINC-BOONLAY-C02\SP\RB3LYP\Gen\C6H6\RWANG013\31-Mar-2016\0\\#p b3l
 yp/chkbas nosymm gfoldprint iop(6/33=2,6/42=17,6/41=10) scf=(maxcycle=
 128) int=ultrafine pop=mk geom=allcheck guess=tcheck\\opt-title\\0,1\C
 ,0,-0.1960660323,0.0839546103,0.0000603594\C,0,1.2028250763,0.08388447
 1,0.0005060189\C,0,1.902331654,1.2953250354,-0.0000471364\C,0,1.202946
 7077,2.506835148,-0.0010455962\C,0,-0.1959444094,2.5069053169,-0.00149
 10918\C,0,-0.8954509972,1.2954647382,-0.0009382991\H,0,-0.7397513458,-
 0.8576259342,0.0004899871\H,0,1.7464164212,-0.8577500156,0.0012814516\
 H,0,2.9896068228,1.2952706254,0.0002992971\H,0,1.7466322779,3.44841553
 32,-0.0014750375\H,0,-0.7395361242,3.4485395988,-0.0022663791\H,0,-1.9
 827261712,1.295519561,-0.0012845739\\Version=EM64L-G09RevA.02\HF=-232.
 2543958\RMSD=9.730e-10\Dipole=-0.0000003,0.,0.0000001\Quadrupole=2.038
 6265,2.0386411,-4.0772676,-0.0000019,0.0019483,-0.003915\PG=C01 [X(C6H
 6)]\\@


 ERROR IS THE FORCE THAT WELDS MEN TOGETHER....
 TRUTH IS COMMUNICATED TO MEN ONLY BY DEEDS OF TRUTH.
           TOLSTOI,MY RELIGION
 Job cpu time:  0 days  0 hours  0 minutes 31.1 seconds.
 File lengths (MBytes):  RWF=     16 Int=      0 D2E=      0 Chk=      2 Scr=      1
 Normal termination of Gaussian 09 at Thu Mar 31 11:42:41 2016.
