opt-title                                                               
Freq      RB3LYP                                                      Gen                 
Number of atoms                            I               22
Info1-9                                    I   N=           9
           6           5           0           0           0         101
           6          18        -502
Charge                                     I                0
Multiplicity                               I                1
Number of electrons                        I               82
Number of alpha electrons                  I               41
Number of beta electrons                   I               41
Number of basis functions                  I              236
Number of independent functions            I              236
Number of point charges in /Mol/           I                0
Number of translation vectors              I                0
Atomic numbers                             I   N=          22
           6           6           6           6           6           6
           1           1           1           1           1           6
           6           6           6           1           6           1
           6           1           1           1
Nuclear charges                            R   N=          22
  6.00000000E+00  6.00000000E+00  6.00000000E+00  6.00000000E+00  6.00000000E+00
  6.00000000E+00  1.00000000E+00  1.00000000E+00  1.00000000E+00  1.00000000E+00
  1.00000000E+00  6.00000000E+00  6.00000000E+00  6.00000000E+00  6.00000000E+00
  1.00000000E+00  6.00000000E+00  1.00000000E+00  6.00000000E+00  1.00000000E+00
  1.00000000E+00  1.00000000E+00
Current cartesian coordinates              R   N=          66
  5.41089131E+00  1.92130701E+00 -1.23023752E+00  2.77196499E+00  1.91934002E+00
 -1.23066146E+00  1.40520229E+00  4.55336138E-11  2.72716945E-10  2.77196499E+00
 -1.91934002E+00  1.23066146E+00  5.41089132E+00 -1.92130701E+00  1.23023752E+00
  6.74346666E+00 -3.22048149E-11 -1.19320099E-10  6.42622191E+00  3.41627782E+00
 -2.20787148E+00  1.75778843E+00  3.39611045E+00 -2.23546083E+00  1.75778843E+00
 -3.39611045E+00  2.23546083E+00  6.42622191E+00 -3.41627782E+00  2.20787148E+00
  8.79752305E+00 -7.29507180E-11 -2.76366321E-10 -1.40522198E+00  1.00670551E-11
  3.40345523E-10 -2.77197148E+00 -2.25918506E+00 -3.07406105E-01 -2.77197148E+00
  2.25918506E+00  3.07406105E-01 -5.41089427E+00 -2.26079271E+00 -3.06179630E-01
 -1.75775682E+00 -4.02183604E+00 -5.96343694E-01 -5.41089427E+00  2.26079271E+00
  3.06179629E-01 -1.75775682E+00  4.02183604E+00  5.96343694E-01 -6.74346818E+00
  6.17757388E-12 -1.53981752E-10 -6.42623269E+00 -4.02850637E+00 -5.62844729E-01
 -6.42623269E+00  4.02850637E+00  5.62844729E-01 -8.79752462E+00  1.13125050E-11
 -3.31517801E-10
Force Field                                I                0
Int Atom Types                             I   N=          22
           0           0           0           0           0           0
           0           0           0           0           0           0
           0           0           0           0           0           0
           0           0           0           0
MM charges                                 R   N=          22
  0.00000000E+00  0.00000000E+00  0.00000000E+00  0.00000000E+00  0.00000000E+00
  0.00000000E+00  0.00000000E+00  0.00000000E+00  0.00000000E+00  0.00000000E+00
  0.00000000E+00  0.00000000E+00  0.00000000E+00  0.00000000E+00  0.00000000E+00
  0.00000000E+00  0.00000000E+00  0.00000000E+00  0.00000000E+00  0.00000000E+00
  0.00000000E+00  0.00000000E+00
Integer atomic weights                     I   N=          22
          12          12          12          12          12          12
           1           1           1           1           1          12
          12          12          12           1          12           1
          12           1           1           1
Real atomic weights                        R   N=          22
  1.20000000E+01  1.20000000E+01  1.20000000E+01  1.20000000E+01  1.20000000E+01
  1.20000000E+01  1.00782504E+00  1.00782504E+00  1.00782504E+00  1.00782504E+00
  1.00782504E+00  1.20000000E+01  1.20000000E+01  1.20000000E+01  1.20000000E+01
  1.00782504E+00  1.20000000E+01  1.00782504E+00  1.20000000E+01  1.00782504E+00
  1.00782504E+00  1.00782504E+00
Atom fragment info                         I   N=          22
           0           0           0           0           0           0
           0           0           0           0           0           0
           0           0           0           0           0           0
           0           0           0           0
Atom residue num                           I   N=          22
           0           0           0           0           0           0
           0           0           0           0           0           0
           0           0           0           0           0           0
           0           0           0           0
Nuclear spins                              I   N=          22
           0           0           0           0           0           0
           1           1           1           1           1           0
           0           0           0           1           0           1
           0           1           1           1
Nuclear ZEff                               R   N=          22
 -3.60000000E+00 -3.60000000E+00 -3.60000000E+00 -3.60000000E+00 -3.60000000E+00
 -3.60000000E+00 -1.00000000E+00 -1.00000000E+00 -1.00000000E+00 -1.00000000E+00
 -1.00000000E+00 -3.60000000E+00 -3.60000000E+00 -3.60000000E+00 -3.60000000E+00
 -1.00000000E+00 -3.60000000E+00 -1.00000000E+00 -3.60000000E+00 -1.00000000E+00
 -1.00000000E+00 -1.00000000E+00
Nuclear QMom                               R   N=          22
  0.00000000E+00  0.00000000E+00  0.00000000E+00  0.00000000E+00  0.00000000E+00
  0.00000000E+00  0.00000000E+00  0.00000000E+00  0.00000000E+00  0.00000000E+00
  0.00000000E+00  0.00000000E+00  0.00000000E+00  0.00000000E+00  0.00000000E+00
  0.00000000E+00  0.00000000E+00  0.00000000E+00  0.00000000E+00  0.00000000E+00
  0.00000000E+00  0.00000000E+00
Nuclear GFac                               R   N=          22
  0.00000000E+00  0.00000000E+00  0.00000000E+00  0.00000000E+00  0.00000000E+00
  0.00000000E+00  2.79284600E+00  2.79284600E+00  2.79284600E+00  2.79284600E+00
  2.79284600E+00  0.00000000E+00  0.00000000E+00  0.00000000E+00  0.00000000E+00
  2.79284600E+00  0.00000000E+00  2.79284600E+00  0.00000000E+00  2.79284600E+00
  2.79284600E+00  2.79284600E+00
MicOpt                                     I   N=          22
          -1          -1          -1          -1          -1          -1
          -1          -1          -1          -1          -1          -1
          -1          -1          -1          -1          -1          -1
          -1          -1          -1          -1
Number of contracted shells                I               80
Number of primitive shells                 I              184
Pure/Cartesian d shells                    I                0
Pure/Cartesian f shells                    I                0
Highest angular momentum                   I                2
Largest degree of contraction              I                6
Shell types                                I   N=          80
           0          -1          -1          -1          -2           0
          -1          -1          -1          -2           0          -1
          -1          -1          -2           0          -1          -1
          -1          -2           0          -1          -1          -1
          -2           0          -1          -1          -1          -2
           0           0           0           0           0           0
           0           0           0           0           0          -1
          -1          -1          -2           0          -1          -1
          -1          -2           0          -1          -1          -1
          -2           0          -1          -1          -1          -2
           0           0           0          -1          -1          -1
          -2           0           0           0          -1          -1
          -1          -2           0           0           0           0
           0           0
Number of primitives per shell             I   N=          80
           6           3           1           1           1           6
           3           1           1           1           6           3
           1           1           1           6           3           1
           1           1           6           3           1           1
           1           6           3           1           1           1
           3           1           3           1           3           1
           3           1           3           1           6           3
           1           1           1           6           3           1
           1           1           6           3           1           1
           1           6           3           1           1           1
           3           1           6           3           1           1
           1           3           1           6           3           1
           1           1           3           1           3           1
           3           1
Shell to atom map                          I   N=          80
           1           1           1           1           1           2
           2           2           2           2           3           3
           3           3           3           4           4           4
           4           4           5           5           5           5
           5           6           6           6           6           6
           7           7           8           8           9           9
          10          10          11          11          12          12
          12          12          12          13          13          13
          13          13          14          14          14          14
          14          15          15          15          15          15
          16          16          17          17          17          17
          17          18          18          19          19          19
          19          19          20          20          21          21
          22          22
Primitive exponents                        R   N=         184
  3.04752488E+03  4.57369518E+02  1.03948685E+02  2.92101553E+01  9.28666296E+00
  3.16392696E+00  7.86827235E+00  1.88128854E+00  5.44249258E-01  1.68714478E-01
  4.38000000E-02  8.00000000E-01  3.04752488E+03  4.57369518E+02  1.03948685E+02
  2.92101553E+01  9.28666296E+00  3.16392696E+00  7.86827235E+00  1.88128854E+00
  5.44249258E-01  1.68714478E-01  4.38000000E-02  8.00000000E-01  3.04752488E+03
  4.57369518E+02  1.03948685E+02  2.92101553E+01  9.28666296E+00  3.16392696E+00
  7.86827235E+00  1.88128854E+00  5.44249258E-01  1.68714478E-01  4.38000000E-02
  8.00000000E-01  3.04752488E+03  4.57369518E+02  1.03948685E+02  2.92101553E+01
  9.28666296E+00  3.16392696E+00  7.86827235E+00  1.88128854E+00  5.44249258E-01
  1.68714478E-01  4.38000000E-02  8.00000000E-01  3.04752488E+03  4.57369518E+02
  1.03948685E+02  2.92101553E+01  9.28666296E+00  3.16392696E+00  7.86827235E+00
  1.88128854E+00  5.44249258E-01  1.68714478E-01  4.38000000E-02  8.00000000E-01
  3.04752488E+03  4.57369518E+02  1.03948685E+02  2.92101553E+01  9.28666296E+00
  3.16392696E+00  7.86827235E+00  1.88128854E+00  5.44249258E-01  1.68714478E-01
  4.38000000E-02  8.00000000E-01  1.87311370E+01  2.82539436E+00  6.40121692E-01
  1.61277759E-01  1.87311370E+01  2.82539436E+00  6.40121692E-01  1.61277759E-01
  1.87311370E+01  2.82539436E+00  6.40121692E-01  1.61277759E-01  1.87311370E+01
  2.82539436E+00  6.40121692E-01  1.61277759E-01  1.87311370E+01  2.82539436E+00
  6.40121692E-01  1.61277759E-01  3.04752488E+03  4.57369518E+02  1.03948685E+02
  2.92101553E+01  9.28666296E+00  3.16392696E+00  7.86827235E+00  1.88128854E+00
  5.44249258E-01  1.68714478E-01  4.38000000E-02  8.00000000E-01  3.04752488E+03
  4.57369518E+02  1.03948685E+02  2.92101553E+01  9.28666296E+00  3.16392696E+00
  7.86827235E+00  1.88128854E+00  5.44249258E-01  1.68714478E-01  4.38000000E-02
  8.00000000E-01  3.04752488E+03  4.57369518E+02  1.03948685E+02  2.92101553E+01
  9.28666296E+00  3.16392696E+00  7.86827235E+00  1.88128854E+00  5.44249258E-01
  1.68714478E-01  4.38000000E-02  8.00000000E-01  3.04752488E+03  4.57369518E+02
  1.03948685E+02  2.92101553E+01  9.28666296E+00  3.16392696E+00  7.86827235E+00
  1.88128854E+00  5.44249258E-01  1.68714478E-01  4.38000000E-02  8.00000000E-01
  1.87311370E+01  2.82539436E+00  6.40121692E-01  1.61277759E-01  3.04752488E+03
  4.57369518E+02  1.03948685E+02  2.92101553E+01  9.28666296E+00  3.16392696E+00
  7.86827235E+00  1.88128854E+00  5.44249258E-01  1.68714478E-01  4.38000000E-02
  8.00000000E-01  1.87311370E+01  2.82539436E+00  6.40121692E-01  1.61277759E-01
  3.04752488E+03  4.57369518E+02  1.03948685E+02  2.92101553E+01  9.28666296E+00
  3.16392696E+00  7.86827235E+00  1.88128854E+00  5.44249258E-01  1.68714478E-01
  4.38000000E-02  8.00000000E-01  1.87311370E+01  2.82539436E+00  6.40121692E-01
  1.61277759E-01  1.87311370E+01  2.82539436E+00  6.40121692E-01  1.61277759E-01
  1.87311370E+01  2.82539436E+00  6.40121692E-01  1.61277759E-01
Contraction coefficients                   R   N=         184
  1.83473713E-03  1.40373228E-02  6.88426223E-02  2.32184443E-01  4.67941348E-01
  3.62311985E-01 -1.19332420E-01 -1.60854152E-01  1.14345644E+00  1.00000000E+00
  1.00000000E+00  1.00000000E+00  1.83473713E-03  1.40373228E-02  6.88426223E-02
  2.32184443E-01  4.67941348E-01  3.62311985E-01 -1.19332420E-01 -1.60854152E-01
  1.14345644E+00  1.00000000E+00  1.00000000E+00  1.00000000E+00  1.83473713E-03
  1.40373228E-02  6.88426223E-02  2.32184443E-01  4.67941348E-01  3.62311985E-01
 -1.19332420E-01 -1.60854152E-01  1.14345644E+00  1.00000000E+00  1.00000000E+00
  1.00000000E+00  1.83473713E-03  1.40373228E-02  6.88426223E-02  2.32184443E-01
  4.67941348E-01  3.62311985E-01 -1.19332420E-01 -1.60854152E-01  1.14345644E+00
  1.00000000E+00  1.00000000E+00  1.00000000E+00  1.83473713E-03  1.40373228E-02
  6.88426223E-02  2.32184443E-01  4.67941348E-01  3.62311985E-01 -1.19332420E-01
 -1.60854152E-01  1.14345644E+00  1.00000000E+00  1.00000000E+00  1.00000000E+00
  1.83473713E-03  1.40373228E-02  6.88426223E-02  2.32184443E-01  4.67941348E-01
  3.62311985E-01 -1.19332420E-01 -1.60854152E-01  1.14345644E+00  1.00000000E+00
  1.00000000E+00  1.00000000E+00  3.34946043E-02  2.34726953E-01  8.13757326E-01
  1.00000000E+00  3.34946043E-02  2.34726953E-01  8.13757326E-01  1.00000000E+00
  3.34946043E-02  2.34726953E-01  8.13757326E-01  1.00000000E+00  3.34946043E-02
  2.34726953E-01  8.13757326E-01  1.00000000E+00  3.34946043E-02  2.34726953E-01
  8.13757326E-01  1.00000000E+00  1.83473713E-03  1.40373228E-02  6.88426223E-02
  2.32184443E-01  4.67941348E-01  3.62311985E-01 -1.19332420E-01 -1.60854152E-01
  1.14345644E+00  1.00000000E+00  1.00000000E+00  1.00000000E+00  1.83473713E-03
  1.40373228E-02  6.88426223E-02  2.32184443E-01  4.67941348E-01  3.62311985E-01
 -1.19332420E-01 -1.60854152E-01  1.14345644E+00  1.00000000E+00  1.00000000E+00
  1.00000000E+00  1.83473713E-03  1.40373228E-02  6.88426223E-02  2.32184443E-01
  4.67941348E-01  3.62311985E-01 -1.19332420E-01 -1.60854152E-01  1.14345644E+00
  1.00000000E+00  1.00000000E+00  1.00000000E+00  1.83473713E-03  1.40373228E-02
  6.88426223E-02  2.32184443E-01  4.67941348E-01  3.62311985E-01 -1.19332420E-01
 -1.60854152E-01  1.14345644E+00  1.00000000E+00  1.00000000E+00  1.00000000E+00
  3.34946043E-02  2.34726953E-01  8.13757326E-01  1.00000000E+00  1.83473713E-03
  1.40373228E-02  6.88426223E-02  2.32184443E-01  4.67941348E-01  3.62311985E-01
 -1.19332420E-01 -1.60854152E-01  1.14345644E+00  1.00000000E+00  1.00000000E+00
  1.00000000E+00  3.34946043E-02  2.34726953E-01  8.13757326E-01  1.00000000E+00
  1.83473713E-03  1.40373228E-02  6.88426223E-02  2.32184443E-01  4.67941348E-01
  3.62311985E-01 -1.19332420E-01 -1.60854152E-01  1.14345644E+00  1.00000000E+00
  1.00000000E+00  1.00000000E+00  3.34946043E-02  2.34726953E-01  8.13757326E-01
  1.00000000E+00  3.34946043E-02  2.34726953E-01  8.13757326E-01  1.00000000E+00
  3.34946043E-02  2.34726953E-01  8.13757326E-01  1.00000000E+00
P(S=P) Contraction coefficients            R   N=         184
  0.00000000E+00  0.00000000E+00  0.00000000E+00  0.00000000E+00  0.00000000E+00
  0.00000000E+00  6.89990666E-02  3.16423961E-01  7.44308291E-01  1.00000000E+00
  1.00000000E+00  0.00000000E+00  0.00000000E+00  0.00000000E+00  0.00000000E+00
  0.00000000E+00  0.00000000E+00  0.00000000E+00  6.89990666E-02  3.16423961E-01
  7.44308291E-01  1.00000000E+00  1.00000000E+00  0.00000000E+00  0.00000000E+00
  0.00000000E+00  0.00000000E+00  0.00000000E+00  0.00000000E+00  0.00000000E+00
  6.89990666E-02  3.16423961E-01  7.44308291E-01  1.00000000E+00  1.00000000E+00
  0.00000000E+00  0.00000000E+00  0.00000000E+00  0.00000000E+00  0.00000000E+00
  0.00000000E+00  0.00000000E+00  6.89990666E-02  3.16423961E-01  7.44308291E-01
  1.00000000E+00  1.00000000E+00  0.00000000E+00  0.00000000E+00  0.00000000E+00
  0.00000000E+00  0.00000000E+00  0.00000000E+00  0.00000000E+00  6.89990666E-02
  3.16423961E-01  7.44308291E-01  1.00000000E+00  1.00000000E+00  0.00000000E+00
  0.00000000E+00  0.00000000E+00  0.00000000E+00  0.00000000E+00  0.00000000E+00
  0.00000000E+00  6.89990666E-02  3.16423961E-01  7.44308291E-01  1.00000000E+00
  1.00000000E+00  0.00000000E+00  0.00000000E+00  0.00000000E+00  0.00000000E+00
  0.00000000E+00  0.00000000E+00  0.00000000E+00  0.00000000E+00  0.00000000E+00
  0.00000000E+00  0.00000000E+00  0.00000000E+00  0.00000000E+00  0.00000000E+00
  0.00000000E+00  0.00000000E+00  0.00000000E+00  0.00000000E+00  0.00000000E+00
  0.00000000E+00  0.00000000E+00  0.00000000E+00  0.00000000E+00  0.00000000E+00
  0.00000000E+00  0.00000000E+00  0.00000000E+00  6.89990666E-02  3.16423961E-01
  7.44308291E-01  1.00000000E+00  1.00000000E+00  0.00000000E+00  0.00000000E+00
  0.00000000E+00  0.00000000E+00  0.00000000E+00  0.00000000E+00  0.00000000E+00
  6.89990666E-02  3.16423961E-01  7.44308291E-01  1.00000000E+00  1.00000000E+00
  0.00000000E+00  0.00000000E+00  0.00000000E+00  0.00000000E+00  0.00000000E+00
  0.00000000E+00  0.00000000E+00  6.89990666E-02  3.16423961E-01  7.44308291E-01
  1.00000000E+00  1.00000000E+00  0.00000000E+00  0.00000000E+00  0.00000000E+00
  0.00000000E+00  0.00000000E+00  0.00000000E+00  0.00000000E+00  6.89990666E-02
  3.16423961E-01  7.44308291E-01  1.00000000E+00  1.00000000E+00  0.00000000E+00
  0.00000000E+00  0.00000000E+00  0.00000000E+00  0.00000000E+00  0.00000000E+00
  0.00000000E+00  0.00000000E+00  0.00000000E+00  0.00000000E+00  0.00000000E+00
  6.89990666E-02  3.16423961E-01  7.44308291E-01  1.00000000E+00  1.00000000E+00
  0.00000000E+00  0.00000000E+00  0.00000000E+00  0.00000000E+00  0.00000000E+00
  0.00000000E+00  0.00000000E+00  0.00000000E+00  0.00000000E+00  0.00000000E+00
  0.00000000E+00  6.89990666E-02  3.16423961E-01  7.44308291E-01  1.00000000E+00
  1.00000000E+00  0.00000000E+00  0.00000000E+00  0.00000000E+00  0.00000000E+00
  0.00000000E+00  0.00000000E+00  0.00000000E+00  0.00000000E+00  0.00000000E+00
  0.00000000E+00  0.00000000E+00  0.00000000E+00  0.00000000E+00
Coordinates of each shell                  R   N=         240
  5.41089131E+00  1.92130701E+00 -1.23023752E+00  5.41089131E+00  1.92130701E+00
 -1.23023752E+00  5.41089131E+00  1.92130701E+00 -1.23023752E+00  5.41089131E+00
  1.92130701E+00 -1.23023752E+00  5.41089131E+00  1.92130701E+00 -1.23023752E+00
  2.77196499E+00  1.91934002E+00 -1.23066146E+00  2.77196499E+00  1.91934002E+00
 -1.23066146E+00  2.77196499E+00  1.91934002E+00 -1.23066146E+00  2.77196499E+00
  1.91934002E+00 -1.23066146E+00  2.77196499E+00  1.91934002E+00 -1.23066146E+00
  1.40520229E+00  4.55336138E-11  2.72716945E-10  1.40520229E+00  4.55336138E-11
  2.72716945E-10  1.40520229E+00  4.55336138E-11  2.72716945E-10  1.40520229E+00
  4.55336138E-11  2.72716945E-10  1.40520229E+00  4.55336138E-11  2.72716945E-10
  2.77196499E+00 -1.91934002E+00  1.23066146E+00  2.77196499E+00 -1.91934002E+00
  1.23066146E+00  2.77196499E+00 -1.91934002E+00  1.23066146E+00  2.77196499E+00
 -1.91934002E+00  1.23066146E+00  2.77196499E+00 -1.91934002E+00  1.23066146E+00
  5.41089132E+00 -1.92130701E+00  1.23023752E+00  5.41089132E+00 -1.92130701E+00
  1.23023752E+00  5.41089132E+00 -1.92130701E+00  1.23023752E+00  5.41089132E+00
 -1.92130701E+00  1.23023752E+00  5.41089132E+00 -1.92130701E+00  1.23023752E+00
  6.74346666E+00 -3.22048149E-11 -1.19320099E-10  6.74346666E+00 -3.22048149E-11
 -1.19320099E-10  6.74346666E+00 -3.22048149E-11 -1.19320099E-10  6.74346666E+00
 -3.22048149E-11 -1.19320099E-10  6.74346666E+00 -3.22048149E-11 -1.19320099E-10
  6.42622191E+00  3.41627782E+00 -2.20787148E+00  6.42622191E+00  3.41627782E+00
 -2.20787148E+00  1.75778843E+00  3.39611045E+00 -2.23546083E+00  1.75778843E+00
  3.39611045E+00 -2.23546083E+00  1.75778843E+00 -3.39611045E+00  2.23546083E+00
  1.75778843E+00 -3.39611045E+00  2.23546083E+00  6.42622191E+00 -3.41627782E+00
  2.20787148E+00  6.42622191E+00 -3.41627782E+00  2.20787148E+00  8.79752305E+00
 -7.29507180E-11 -2.76366321E-10  8.79752305E+00 -7.29507180E-11 -2.76366321E-10
 -1.40522198E+00  1.00670551E-11  3.40345523E-10 -1.40522198E+00  1.00670551E-11
  3.40345523E-10 -1.40522198E+00  1.00670551E-11  3.40345523E-10 -1.40522198E+00
  1.00670551E-11  3.40345523E-10 -1.40522198E+00  1.00670551E-11  3.40345523E-10
 -2.77197148E+00 -2.25918506E+00 -3.07406105E-01 -2.77197148E+00 -2.25918506E+00
 -3.07406105E-01 -2.77197148E+00 -2.25918506E+00 -3.07406105E-01 -2.77197148E+00
 -2.25918506E+00 -3.07406105E-01 -2.77197148E+00 -2.25918506E+00 -3.07406105E-01
 -2.77197148E+00  2.25918506E+00  3.07406105E-01 -2.77197148E+00  2.25918506E+00
  3.07406105E-01 -2.77197148E+00  2.25918506E+00  3.07406105E-01 -2.77197148E+00
  2.25918506E+00  3.07406105E-01 -2.77197148E+00  2.25918506E+00  3.07406105E-01
 -5.41089427E+00 -2.26079271E+00 -3.06179630E-01 -5.41089427E+00 -2.26079271E+00
 -3.06179630E-01 -5.41089427E+00 -2.26079271E+00 -3.06179630E-01 -5.41089427E+00
 -2.26079271E+00 -3.06179630E-01 -5.41089427E+00 -2.26079271E+00 -3.06179630E-01
 -1.75775682E+00 -4.02183604E+00 -5.96343694E-01 -1.75775682E+00 -4.02183604E+00
 -5.96343694E-01 -5.41089427E+00  2.26079271E+00  3.06179629E-01 -5.41089427E+00
  2.26079271E+00  3.06179629E-01 -5.41089427E+00  2.26079271E+00  3.06179629E-01
 -5.41089427E+00  2.26079271E+00  3.06179629E-01 -5.41089427E+00  2.26079271E+00
  3.06179629E-01 -1.75775682E+00  4.02183604E+00  5.96343694E-01 -1.75775682E+00
  4.02183604E+00  5.96343694E-01 -6.74346818E+00  6.17757388E-12 -1.53981752E-10
 -6.74346818E+00  6.17757388E-12 -1.53981752E-10 -6.74346818E+00  6.17757388E-12
 -1.53981752E-10 -6.74346818E+00  6.17757388E-12 -1.53981752E-10 -6.74346818E+00
  6.17757388E-12 -1.53981752E-10 -6.42623269E+00 -4.02850637E+00 -5.62844729E-01
 -6.42623269E+00 -4.02850637E+00 -5.62844729E-01 -6.42623269E+00  4.02850637E+00
  5.62844729E-01 -6.42623269E+00  4.02850637E+00  5.62844729E-01 -8.79752462E+00
  1.13125050E-11 -3.31517801E-10 -8.79752462E+00  1.13125050E-11 -3.31517801E-10
Constraint Structure                       R   N=          66
  5.41089131E+00  1.92130701E+00 -1.23023752E+00  2.77196499E+00  1.91934002E+00
 -1.23066146E+00  1.40520229E+00  4.55336138E-11  2.72716945E-10  2.77196499E+00
 -1.91934002E+00  1.23066146E+00  5.41089132E+00 -1.92130701E+00  1.23023752E+00
  6.74346666E+00 -3.22048149E-11 -1.19320099E-10  6.42622191E+00  3.41627782E+00
 -2.20787148E+00  1.75778843E+00  3.39611045E+00 -2.23546083E+00  1.75778843E+00
 -3.39611045E+00  2.23546083E+00  6.42622191E+00 -3.41627782E+00  2.20787148E+00
  8.79752305E+00 -7.29507180E-11 -2.76366321E-10 -1.40522198E+00  1.00670551E-11
  3.40345523E-10 -2.77197148E+00 -2.25918506E+00 -3.07406105E-01 -2.77197148E+00
  2.25918506E+00  3.07406105E-01 -5.41089427E+00 -2.26079271E+00 -3.06179630E-01
 -1.75775682E+00 -4.02183604E+00 -5.96343694E-01 -5.41089427E+00  2.26079271E+00
  3.06179629E-01 -1.75775682E+00  4.02183604E+00  5.96343694E-01 -6.74346818E+00
  6.17757388E-12 -1.53981752E-10 -6.42623269E+00 -4.02850637E+00 -5.62844729E-01
 -6.42623269E+00  4.02850637E+00  5.62844729E-01 -8.79752462E+00  1.13125050E-11
 -3.31517801E-10
Num ILSW                                   I              100
ILSW                                       I   N=         100
           0           0           0           0           2           0
           0           0           0           0         402          -1
           5           0           0           0           0           0
           0           0           0           0           1           0
           1           1           0           0           0           0
           0           0      100000           0          -1           0
           0           0           0           0           0           0
           0           0           0           1           0           0
           0           0           1           0           0           0
           0           0           4          40           0           0
           0           0           5           0           0           0
           0           0           0           0           0           0
           0           0           0           0           0           0
           0           0           0           0           0           0
           0           0           0           0           0           0
           0           0           0           0           0           0
           0           0           0           0
Num RLSW                                   I               40
RLSW                                       R   N=          40
  8.00000000E-01  7.20000000E-01  1.00000000E+00  8.10000000E-01  2.00000000E-01
  0.00000000E+00  0.00000000E+00  1.00000000E+00  0.00000000E+00  0.00000000E+00
  0.00000000E+00  0.00000000E+00  1.00000000E+00  0.00000000E+00  0.00000000E+00
  0.00000000E+00  0.00000000E+00  1.00000000E+00  0.00000000E+00  0.00000000E+00
  0.00000000E+00  0.00000000E+00  1.00000000E+00  0.00000000E+00  0.00000000E+00
  0.00000000E+00  0.00000000E+00  1.00000000E+00  0.00000000E+00  0.00000000E+00
  0.00000000E+00  0.00000000E+00  1.00000000E+00  0.00000000E+00  0.00000000E+00
  0.00000000E+00  0.00000000E+00  0.00000000E+00  1.00000000E+00  1.00000000E+00
ECP-MxAtEC                                 I           250000
ECP-MaxLECP                                I               10
ECP-MaxAtL                                 I          2250000
ECP-MxTECP                                 I         11250000
ECP-LenNCZ                                 I                0
ECP-KFirst                                 I   N=         220
           0           0           0           0           0           0
           0           0           0           0           0           0
           0           0           0           0           0           0
           0           0           0           0           0           0
           0           0           0           0           0           0
           0           0           0           0           0           0
           0           0           0           0           0           0
           0           0           0           0           0           0
           0           0           0           0           0           0
           0           0           0           0           0           0
           0           0           0           0           0           0
           0           0           0           0           0           0
           0           0           0           0           0           0
           0           0           0           0           0           0
           0           0           0           0           0           0
           0           0           0           0           0           0
           0           0           0           0           0           0
           0           0           0           0           0           0
           0           0           0           0           0           0
           0           0           0           0           0           0
           0           0           0           0           0           0
           0           0           0           0           0           0
           0           0           0           0           0           0
           0           0           0           0           0           0
           0           0           0           0           0           0
           0           0           0           0           0           0
           0           0           0           0           0           0
           0           0           0           0           0           0
           0           0           0           0           0           0
           0           0           0           0           0           0
           0           0           0           0           0           0
           0           0           0           0           0           0
           0           0           0           0           0           0
           0           0           0           0           0           0
           0           0           0           0           0           0
           0           0           0           0           0           0
           0           0           0           0
ECP-KLast                                  I   N=         220
           0           0           0           0           0           0