opt-title                                                               
Freq      RB3LYP                                                      Gen                 
Number of atoms                            I               12
Info1-9                                    I   N=           9
           6           5           0           0           0         101
           6          18        -502
Charge                                     I                0
Multiplicity                               I                1
Number of electrons                        I               42
Number of alpha electrons                  I               21
Number of beta electrons                   I               21
Number of basis functions                  I              120
Number of independent functions            I              120
Number of point charges in /Mol/           I                0
Number of translation vectors              I                0
Atomic numbers                             I   N=          12
           6           6           6           6           6           6
           1           1           1           1           1           1
Nuclear charges                            R   N=          12
  6.00000000E+00  6.00000000E+00  6.00000000E+00  6.00000000E+00  6.00000000E+00
  6.00000000E+00  1.00000000E+00  1.00000000E+00  1.00000000E+00  1.00000000E+00
  1.00000000E+00  1.00000000E+00
Current cartesian coordinates              R   N=          36
 -3.70511105E-01  1.58651221E-01  1.14062675E-04  2.27300998E+00  1.58518677E-01
  9.56237079E-04  3.59488584E+00  2.44780957E+00 -8.90749171E-05  2.27323983E+00
  4.73723189E+00 -1.97589054E-03 -3.70281271E-01  4.73736449E+00 -2.81775510E-03
 -1.69215715E+00  2.44807357E+00 -1.77312836E-03 -1.39792745E+00 -1.62067814E+00
  9.25941358E-04  3.30024875E+00 -1.62091262E+00  2.42159262E-03  5.64953814E+00
  2.44770675E+00  5.65589563E-04  3.30065666E+00  6.51656095E+00 -2.78741686E-03
 -1.39752074E+00  6.51679540E+00 -4.28283590E-03 -3.74680946E+00  2.44817717E+00
 -2.42749278E-03
Force Field                                I                0
Int Atom Types                             I   N=          12
           0           0           0           0           0           0
           0           0           0           0           0           0
MM charges                                 R   N=          12
  0.00000000E+00  0.00000000E+00  0.00000000E+00  0.00000000E+00  0.00000000E+00
  0.00000000E+00  0.00000000E+00  0.00000000E+00  0.00000000E+00  0.00000000E+00
  0.00000000E+00  0.00000000E+00
Integer atomic weights                     I   N=          12
          12          12          12          12          12          12
           1           1           1           1           1           1
Real atomic weights                        R   N=          12
  1.20000000E+01  1.20000000E+01  1.20000000E+01  1.20000000E+01  1.20000000E+01
  1.20000000E+01  1.00782504E+00  1.00782504E+00  1.00782504E+00  1.00782504E+00
  1.00782504E+00  1.00782504E+00
Atom fragment info                         I   N=          12
           0           0           0           0           0           0
           0           0           0           0           0           0
Atom residue num                           I   N=          12
           0           0           0           0           0           0
           0           0           0           0           0           0
Nuclear spins                              I   N=          12
           0           0           0           0           0           0
           1           1           1           1           1           1
Nuclear ZEff                               R   N=          12
 -3.60000000E+00 -3.60000000E+00 -3.60000000E+00 -3.60000000E+00 -3.60000000E+00
 -3.60000000E+00 -1.00000000E+00 -1.00000000E+00 -1.00000000E+00 -1.00000000E+00
 -1.00000000E+00 -1.00000000E+00
Nuclear QMom                               R   N=          12
  0.00000000E+00  0.00000000E+00  0.00000000E+00  0.00000000E+00  0.00000000E+00
  0.00000000E+00  0.00000000E+00  0.00000000E+00  0.00000000E+00  0.00000000E+00
  0.00000000E+00  0.00000000E+00
Nuclear GFac                               R   N=          12
  0.00000000E+00  0.00000000E+00  0.00000000E+00  0.00000000E+00  0.00000000E+00
  0.00000000E+00  2.79284600E+00  2.79284600E+00  2.79284600E+00  2.79284600E+00
  2.79284600E+00  2.79284600E+00
MicOpt                                     I   N=          12
          -1          -1          -1          -1          -1          -1
          -1          -1          -1          -1          -1          -1
Number of contracted shells                I               42
Number of primitive shells                 I               96
Pure/Cartesian d shells                    I                0
Pure/Cartesian f shells                    I                0
Highest angular momentum                   I                2
Largest degree of contraction              I                6
Shell types                                I   N=          42
           0          -1          -1          -1          -2           0
          -1          -1          -1          -2           0          -1
          -1          -1          -2           0          -1          -1
          -1          -2           0          -1          -1          -1
          -2           0          -1          -1          -1          -2
           0           0           0           0           0           0
           0           0           0           0           0           0
Number of primitives per shell             I   N=          42
           6           3           1           1           1           6
           3           1           1           1           6           3
           1           1           1           6           3           1
           1           1           6           3           1           1
           1           6           3           1           1           1
           3           1           3           1           3           1
           3           1           3           1           3           1
Shell to atom map                          I   N=          42
           1           1           1           1           1           2
           2           2           2           2           3           3
           3           3           3           4           4           4
           4           4           5           5           5           5
           5           6           6           6           6           6
           7           7           8           8           9           9
          10          10          11          11          12          12
Primitive exponents                        R   N=          96
  3.04752488E+03  4.57369518E+02  1.03948685E+02  2.92101553E+01  9.28666296E+00
  3.16392696E+00  7.86827235E+00  1.88128854E+00  5.44249258E-01  1.68714478E-01
  4.38000000E-02  8.00000000E-01  3.04752488E+03  4.57369518E+02  1.03948685E+02
  2.92101553E+01  9.28666296E+00  3.16392696E+00  7.86827235E+00  1.88128854E+00
  5.44249258E-01  1.68714478E-01  4.38000000E-02  8.00000000E-01  3.04752488E+03
  4.57369518E+02  1.03948685E+02  2.92101553E+01  9.28666296E+00  3.16392696E+00
  7.86827235E+00  1.88128854E+00  5.44249258E-01  1.68714478E-01  4.38000000E-02
  8.00000000E-01  3.04752488E+03  4.57369518E+02  1.03948685E+02  2.92101553E+01
  9.28666296E+00  3.16392696E+00  7.86827235E+00  1.88128854E+00  5.44249258E-01
  1.68714478E-01  4.38000000E-02  8.00000000E-01  3.04752488E+03  4.57369518E+02
  1.03948685E+02  2.92101553E+01  9.28666296E+00  3.16392696E+00  7.86827235E+00
  1.88128854E+00  5.44249258E-01  1.68714478E-01  4.38000000E-02  8.00000000E-01
  3.04752488E+03  4.57369518E+02  1.03948685E+02  2.92101553E+01  9.28666296E+00
  3.16392696E+00  7.86827235E+00  1.88128854E+00  5.44249258E-01  1.68714478E-01
  4.38000000E-02  8.00000000E-01  1.87311370E+01  2.82539436E+00  6.40121692E-01
  1.61277759E-01  1.87311370E+01  2.82539436E+00  6.40121692E-01  1.61277759E-01
  1.87311370E+01  2.82539436E+00  6.40121692E-01  1.61277759E-01  1.87311370E+01
  2.82539436E+00  6.40121692E-01  1.61277759E-01  1.87311370E+01  2.82539436E+00
  6.40121692E-01  1.61277759E-01  1.87311370E+01  2.82539436E+00  6.40121692E-01
  1.61277759E-01
Contraction coefficients                   R   N=          96
  1.83473713E-03  1.40373228E-02  6.88426223E-02  2.32184443E-01  4.67941348E-01
  3.62311985E-01 -1.19332420E-01 -1.60854152E-01  1.14345644E+00  1.00000000E+00
  1.00000000E+00  1.00000000E+00  1.83473713E-03  1.40373228E-02  6.88426223E-02
  2.32184443E-01  4.67941348E-01  3.62311985E-01 -1.19332420E-01 -1.60854152E-01
  1.14345644E+00  1.00000000E+00  1.00000000E+00  1.00000000E+00  1.83473713E-03
  1.40373228E-02  6.88426223E-02  2.32184443E-01  4.67941348E-01  3.62311985E-01
 -1.19332420E-01 -1.60854152E-01  1.14345644E+00  1.00000000E+00  1.00000000E+00
  1.00000000E+00  1.83473713E-03  1.40373228E-02  6.88426223E-02  2.32184443E-01
  4.67941348E-01  3.62311985E-01 -1.19332420E-01 -1.60854152E-01  1.14345644E+00
  1.00000000E+00  1.00000000E+00  1.00000000E+00  1.83473713E-03  1.40373228E-02
  6.88426223E-02  2.32184443E-01  4.67941348E-01  3.62311985E-01 -1.19332420E-01
 -1.60854152E-01  1.14345644E+00  1.00000000E+00  1.00000000E+00  1.00000000E+00
  1.83473713E-03  1.40373228E-02  6.88426223E-02  2.32184443E-01  4.67941348E-01
  3.62311985E-01 -1.19332420E-01 -1.60854152E-01  1.14345644E+00  1.00000000E+00
  1.00000000E+00  1.00000000E+00  3.34946043E-02  2.34726953E-01  8.13757326E-01
  1.00000000E+00  3.34946043E-02  2.34726953E-01  8.13757326E-01  1.00000000E+00
  3.34946043E-02  2.34726953E-01  8.13757326E-01  1.00000000E+00  3.34946043E-02
  2.34726953E-01  8.13757326E-01  1.00000000E+00  3.34946043E-02  2.34726953E-01
  8.13757326E-01  1.00000000E+00  3.34946043E-02  2.34726953E-01  8.13757326E-01
  1.00000000E+00
P(S=P) Contraction coefficients            R   N=          96
  0.00000000E+00  0.00000000E+00  0.00000000E+00  0.00000000E+00  0.00000000E+00
  0.00000000E+00  6.89990666E-02  3.16423961E-01  7.44308291E-01  1.00000000E+00
  1.00000000E+00  0.00000000E+00  0.00000000E+00  0.00000000E+00  0.00000000E+00
  0.00000000E+00  0.00000000E+00  0.00000000E+00  6.89990666E-02  3.16423961E-01
  7.44308291E-01  1.00000000E+00  1.00000000E+00  0.00000000E+00  0.00000000E+00
  0.00000000E+00  0.00000000E+00  0.00000000E+00  0.00000000E+00  0.00000000E+00
  6.89990666E-02  3.16423961E-01  7.44308291E-01  1.00000000E+00  1.00000000E+00
  0.00000000E+00  0.00000000E+00  0.00000000E+00  0.00000000E+00  0.00000000E+00
  0.00000000E+00  0.00000000E+00  6.89990666E-02  3.16423961E-01  7.44308291E-01
  1.00000000E+00  1.00000000E+00  0.00000000E+00  0.00000000E+00  0.00000000E+00
  0.00000000E+00  0.00000000E+00  0.00000000E+00  0.00000000E+00  6.89990666E-02
  3.16423961E-01  7.44308291E-01  1.00000000E+00  1.00000000E+00  0.00000000E+00
  0.00000000E+00  0.00000000E+00  0.00000000E+00  0.00000000E+00  0.00000000E+00
  0.00000000E+00  6.89990666E-02  3.16423961E-01  7.44308291E-01  1.00000000E+00
  1.00000000E+00  0.00000000E+00  0.00000000E+00  0.00000000E+00  0.00000000E+00
  0.00000000E+00  0.00000000E+00  0.00000000E+00  0.00000000E+00  0.00000000E+00
  0.00000000E+00  0.00000000E+00  0.00000000E+00  0.00000000E+00  0.00000000E+00
  0.00000000E+00  0.00000000E+00  0.00000000E+00  0.00000000E+00  0.00000000E+00
  0.00000000E+00  0.00000000E+00  0.00000000E+00  0.00000000E+00  0.00000000E+00
  0.00000000E+00
Coordinates of each shell                  R   N=         126
 -3.70511105E-01  1.58651221E-01  1.14062675E-04 -3.70511105E-01  1.58651221E-01
  1.14062675E-04 -3.70511105E-01  1.58651221E-01  1.14062675E-04 -3.70511105E-01
  1.58651221E-01  1.14062675E-04 -3.70511105E-01  1.58651221E-01  1.14062675E-04
  2.27300998E+00  1.58518677E-01  9.56237079E-04  2.27300998E+00  1.58518677E-01
  9.56237079E-04  2.27300998E+00  1.58518677E-01  9.56237079E-04  2.27300998E+00
  1.58518677E-01  9.56237079E-04  2.27300998E+00  1.58518677E-01  9.56237079E-04
  3.59488584E+00  2.44780957E+00 -8.90749171E-05  3.59488584E+00  2.44780957E+00
 -8.90749171E-05  3.59488584E+00  2.44780957E+00 -8.90749171E-05  3.59488584E+00
  2.44780957E+00 -8.90749171E-05  3.59488584E+00  2.44780957E+00 -8.90749171E-05
  2.27323983E+00  4.73723189E+00 -1.97589054E-03  2.27323983E+00  4.73723189E+00
 -1.97589054E-03  2.27323983E+00  4.73723189E+00 -1.97589054E-03  2.27323983E+00
  4.73723189E+00 -1.97589054E-03  2.27323983E+00  4.73723189E+00 -1.97589054E-03
 -3.70281271E-01  4.73736449E+00 -2.81775510E-03 -3.70281271E-01  4.73736449E+00
 -2.81775510E-03 -3.70281271E-01  4.73736449E+00 -2.81775510E-03 -3.70281271E-01
  4.73736449E+00 -2.81775510E-03 -3.70281271E-01  4.73736449E+00 -2.81775510E-03
 -1.69215715E+00  2.44807357E+00 -1.77312836E-03 -1.69215715E+00  2.44807357E+00
 -1.77312836E-03 -1.69215715E+00  2.44807357E+00 -1.77312836E-03 -1.69215715E+00
  2.44807357E+00 -1.77312836E-03 -1.69215715E+00  2.44807357E+00 -1.77312836E-03
 -1.39792745E+00 -1.62067814E+00  9.25941358E-04 -1.39792745E+00 -1.62067814E+00
  9.25941358E-04  3.30024875E+00 -1.62091262E+00  2.42159262E-03  3.30024875E+00
 -1.62091262E+00  2.42159262E-03  5.64953814E+00  2.44770675E+00  5.65589563E-04
  5.64953814E+00  2.44770675E+00  5.65589563E-04  3.30065666E+00  6.51656095E+00
 -2.78741686E-03  3.30065666E+00  6.51656095E+00 -2.78741686E-03 -1.39752074E+00
  6.51679540E+00 -4.28283590E-03 -1.39752074E+00  6.51679540E+00 -4.28283590E-03
 -3.74680946E+00  2.44817717E+00 -2.42749278E-03 -3.74680946E+00  2.44817717E+00
 -2.42749278E-03
Constraint Structure                       R   N=          36
 -3.70511105E-01  1.58651221E-01  1.14062675E-04  2.27300998E+00  1.58518677E-01
  9.56237079E-04  3.59488584E+00  2.44780957E+00 -8.90749171E-05  2.27323983E+00
  4.73723189E+00 -1.97589054E-03 -3.70281271E-01  4.73736449E+00 -2.81775510E-03
 -1.69215715E+00  2.44807357E+00 -1.77312836E-03 -1.39792745E+00 -1.62067814E+00
  9.25941358E-04  3.30024875E+00 -1.62091262E+00  2.42159262E-03  5.64953814E+00
  2.44770675E+00  5.65589563E-04  3.30065666E+00  6.51656095E+00 -2.78741686E-03
 -1.39752074E+00  6.51679540E+00 -4.28283590E-03 -3.74680946E+00  2.44817717E+00
 -2.42749278E-03
Num ILSW                                   I              100
ILSW                                       I   N=         100
           0           0           0           0           2           0
           0           0           0           0         402          -1
           5           0           0           0           0           0
           0           0           0           0           1           0
           1           1           0           0           0           0
           0           0      100000           0          -1           0
           0           0           0           0           0           0
           0           0           0           1           0           0
           0           0           1           0           0           0
           0           0           4          40           0           0
           0           0           5           0           0           0
           0           0           0           0           0           0
           0           0           0           0           0           0
           0           0           0           0           0           0
           0           0           0           0           0           0
           0           0           0           0           0           0
           0           0           0           0
Num RLSW                                   I               40
RLSW                                       R   N=          40
  8.00000000E-01  7.20000000E-01  1.00000000E+00  8.10000000E-01  2.00000000E-01
  0.00000000E+00  0.00000000E+00  1.00000000E+00  0.00000000E+00  0.00000000E+00
  0.00000000E+00  0.00000000E+00  1.00000000E+00  0.00000000E+00  0.00000000E+00
  0.00000000E+00  0.00000000E+00  1.00000000E+00  0.00000000E+00  0.00000000E+00
  0.00000000E+00  0.00000000E+00  1.00000000E+00  0.00000000E+00  0.00000000E+00
  0.00000000E+00  0.00000000E+00  1.00000000E+00  0.00000000E+00  0.00000000E+00
  0.00000000E+00  0.00000000E+00  1.00000000E+00  0.00000000E+00  0.00000000E+00
  0.00000000E+00  0.00000000E+00  0.00000000E+00  1.00000000E+00  1.00000000E+00
ECP-MxAtEC                                 I           250000
ECP-MaxLECP                                I               10
ECP-MaxAtL                                 I          2250000
ECP-MxTECP                                 I         11250000
ECP-LenNCZ                                 I                0
ECP-KFirst                                 I   N=         120
           0           0           0           0           0           0
           0           0           0           0           0           0
           0           0           0           0           0           0
           0           0           0           0           0           0
           0           0           0           0           0           0
           0           0           0           0           0           0
           0           0           0           0           0           0
           0           0           0           0           0           0
           0           0           0           0           0           0
           0           0           0           0           0           0
           0           0           0           0           0           0
           0           0           0           0           0           0
           0           0           0           0           0           0
           0           0           0           0           0           0
           0           0           0           0           0           0
           0           0           0           0           0           0
           0           0           0           0           0           0
           0           0           0           0           0           0
           0           0           0           0           0           0
           0           0           0           0           0           0
ECP-KLast                                  I   N=         120
           0           0           0           0           0           0
           0           0           0           0           0           0
           0           0           0           0           0           0
           0           0           0           0           0           0
           0           0           0           0           0           0
           0           0           0           0           0           0
           0           0           0           0           0           0
           0           0           0           0           0           0
           0           0           0           0           0           0
           0           0           0           0           0           0
           0           0           0           0           0           0
           0           0           0           0           0           0
           0           0           0           0           0           0
           0           0           0           0           0           0
           0           0           0           0           0           0
           0           0           0           0           0           0
           0           0           0           0           0           0
           0           0           0           0           0           0
           0           0           0           0           0           0
           0           0           0           0           0           0
ECP-LMax                                   I   N=          12
           0           0           0           0           0           0
           0           0           0           0           0           0
ECP-LPSkip                                 I   N=          12
           1           1           1           1           1           1
           1           1           1           1           1           1
ECP-RNFroz                                 R   N=          12
  0.00000000E+00  0.00000000E+00  0.00000000E+00  0.00000000E+00  0.00000000E+00
  0.00000000E+00  0.00000000E+00  0.00000000E+00  0.00000000E+00  0.00000000E+00
  0.00000000E+00  0.00000000E+00
ECP-NLP                                    I                0
ECP-CLP1                                   R      0.000000000000000E+00
ECP-CLP2                                   R      0.000000000000000E+00
ECP-ZLP                                    R      0.000000000000000E+00
MxBond                                     I                3
NBond                                      I   N=          12
           3           3           3           3           3           3
           1           1           1           1           1           1
IBond                                      I   N=          36
           2           6           7           3           8           1
           4           9           2           5          10           3
           6          11           4          12           1           5
           1           0           0           2           0           0
           3           0           0           4           0           0
           5           0           0           6           0           0
RBond                                      R   N=          36
  1.50000000E+00  1.50000000E+00  1.00000000E+00  1.50000000E+00  1.00000000E+00
  1.50000000E+00  1.50000000E+00  1.00000000E+00  1.50000000E+00  1.50000000E+00
  1.00000000E+00  1.50000000E+00  1.50000000E+00  1.00000000E+00  1.50000000E+00
  1.00000000E+00  1.50000000E+00  1.50000000E+00  1.00000000E+00  0.00000000E+00
  0.00000000E+00  1.00000000E+00  0.00000000E+00  0.00000000E+00  1.00000000E+00
  0.00000000E+00  0.00000000E+00  1.00000000E+00  0.00000000E+00  0.00000000E+00
  1.00000000E+00  0.00000000E+00  0.00000000E+00  1.00000000E+00  0.00000000E+00
  0.00000000E+00
Virial Ratio                               R      2.007023121641175E+00
SCF Energy                                 R     -2.322543958439446E+02
Total Energy                               R     -2.322543958439446E+02
RMS Force                                  R      1.045345501946856E-07
RMS Density                                R      5.276827592938886E-09
External E-field                           R   N=          35
  0.00000000E+00  0.00000000E+00  0.00000000E+00  0.00000000E+00  0.00000000E+00
  0.00000000E+00  0.00000000E+00  0.00000000E+00  0.00000000E+00  0.00000000E+00
  0.00000000E+00  0.00000000E+00  0.00000000E+00  0.00000000E+00  0.00000000E+00
  0.00000000E+00  0.00000000E+00  0.00000000E+00  0.00000000E+00  0.00000000E+00
  0.00000000E+00  0.00000000E+00  0.00000000E+00  0.00000000E+00  0.00000000E+00
  0.00000000E+00  0.00000000E+00  0.00000000E+00  0.00000000E+00  0.00000000E+00
  0.00000000E+00  0.00000000E+00  0.00000000E+00  0.00000000E+00  0.00000000E+00
IOpCl                                      I                0
IROHF                                      I                0
Alpha Orbital Energies                     R   N=         120
 -1.01930844E+01 -1.01928732E+01 -1.01928730E+01 -1.01923940E+01 -1.01923938E+01
 -1.01921847E+01 -8.56389456E-01 -7.49626630E-01 -7.49626442E-01 -6.06812571E-01
 -6.06812494E-01 -5.27280148E-01 -4.67716231E-01 -4.48431344E-01 -4.26547997E-01
 -4.26547578E-01 -3.69127424E-01 -3.49727048E-01 -3.49726818E-01 -2.57015350E-01
 -2.57015268E-01 -1.44807630E-02 -1.44804717E-02  8.95891690E-03  2.62262649E-02
  2.62263349E-02  4.59506775E-02  4.59508856E-02  6.68478803E-02  7.80254557E-02
  7.98253277E-02  9.22764123E-02  9.22767094E-02  9.97795630E-02  1.26682358E-01
  1.42723893E-01  1.42726867E-01  1.44850610E-01  1.44850719E-01  1.55433754E-01
  1.55435472E-01  1.96087766E-01  1.96797520E-01  1.96797997E-01  2.05012448E-01
  2.11897843E-01  2.11900549E-01  2.35321874E-01  2.43811295E-01  2.43811471E-01
  2.66296299E-01  2.79065188E-01  2.79066751E-01  3.24681536E-01  3.47652318E-01
  3.47652637E-01  3.49008767E-01  3.49008920E-01  5.65204078E-01  5.75734225E-01
  6.00967287E-01  6.20478926E-01  6.59370570E-01  7.17519646E-01  7.17519928E-01
  7.22093890E-01  7.22095245E-01  7.46830506E-01  7.46830746E-01  7.71129160E-01
  7.71130058E-01  8.03490623E-01  8.32347938E-01  8.98534769E-01  9.31691666E-01
  9.31691765E-01  9.64462437E-01  9.64462724E-01  9.75244430E-01  1.03414089E+00
  1.07953332E+00  1.07953404E+00  1.13610779E+00  1.13610817E+00  1.17407132E+00
  1.17407155E+00  1.25073286E+00  1.31057710E+00  1.39147312E+00  1.43447685E+00
  1.43447735E+00  1.47780610E+00  1.47780623E+00  1.50488423E+00  1.50488431E+00
  1.75430614E+00  1.81528272E+00  1.88340435E+00  1.91066851E+00  1.98764518E+00
  1.98764590E+00  2.10398834E+00  2.10398870E+00  2.14952126E+00  2.14952145E+00
  2.16182880E+00  2.16182922E+00  2.30031375E+00  2.30031431E+00  2.31904606E+00
  2.57115634E+00  2.57115658E+00  2.64155013E+00  2.70047459E+00  2.70047511E+00
  2.73159378E+00  2.73159437E+00  2.82719546E+00  3.01740374E+00  3.39578264E+00
Alpha MO coefficients                      R   N=       14400
  4.06296426E-01  1.40538588E-02 -1.73761601E-04 -3.01882946E-04  1.37969157E-07
 -7.64300387E-03  4.09750979E-04  7.11784350E-04 -3.25386279E-07  5.72558502E-04
  5.69167901E-04  9.83762977E-04 -4.49883182E-07  1.49823179E-04 -3.49670945E-07
  1.49994724E-07 -1.86526566E-04  3.24069869E-04  4.06132353E-01  1.40478397E-02
  1.74365284E-04 -3.01519226E-04  2.48397645E-07 -7.63968995E-03 -4.11000669E-04
  7.10752953E-04 -5.84937244E-07  5.76499814E-04 -5.68232720E-04  9.83943684E-04
 -8.09989231E-07  1.49675681E-04  6.49659621E-08 -5.66397917E-08 -1.87119390E-04
 -3.23561728E-04  4.06090235E-01  1.40463581E-02  3.48260579E-04  4.22537345E-09
  1.10997969E-07 -7.63931282E-03 -8.20753400E-04 -7.96878717E-09 -2.61959278E-07
  5.81448948E-04 -1.13679346E-03  4.17824889E-07 -3.62724039E-07  1.49578733E-04
  3.66677959E-08  4.05250656E-07  3.73681768E-04 -6.89325074E-08  4.06093717E-01
  1.40462689E-02  1.74544387E-04  3.01533125E-04 -1.37475712E-07 -7.63777521E-03
 -4.11512856E-04 -7.10962878E-04  3.24199373E-07  5.67644143E-04 -5.67034476E-04
 -9.82725968E-04  4.49654994E-07  1.49786442E-04 -3.49447874E-07  1.49299240E-07
 -1.87209139E-04  3.23629211E-04  4.06417986E-01  1.40585331E-02 -1.73644226E-04
  3.01792062E-04 -2.48381205E-07 -7.64704144E-03  4.09389588E-04 -7.11417394E-04
  5.85224810E-07  5.83349117E-04  5.70638787E-04 -9.85736175E-04  8.10020619E-07
  1.49728013E-04  6.53877642E-08 -5.64922846E-08 -1.86520830E-04 -3.23973844E-04
  4.06576432E-01  1.40645512E-02 -3.48052180E-04 -9.56686723E-08 -1.10806782E-07
 -7.65172093E-03  8.20420808E-04  2.15329397E-07  2.61165733E-07  5.92594912E-04
  1.14139550E-03 -5.62459271E-07  3.66228616E-07  1.49671579E-04  3.65551498E-08
  4.05317497E-07  3.73783651E-04 -1.56240449E-07 -6.43894866E-04  2.70766312E-03
 -6.43706606E-04  2.70695583E-03 -6.43645284E-04  2.70671495E-03 -6.43696728E-04
  2.70694152E-03 -6.43985800E-04  2.70797499E-03 -6.44120483E-04  2.70846537E-03
 -1.22972367E-01 -4.60275756E-03 -9.57139569E-04  4.91336544E-04 -6.19505737E-07
  3.14697552E-03  2.15660932E-03 -1.14275012E-03  1.41823351E-06 -2.85509454E-03
 -2.03526423E-03 -1.76796941E-04 -5.33101311E-07 -2.32444248E-05  7.61559146E-08
 -7.54615313E-07 -8.72721822E-04 -5.33106582E-04  4.24590790E-01  1.58906800E-02
 -7.33529518E-04 -2.12405072E-04 -9.77821848E-08 -1.08676135E-02  1.61156262E-03
  5.74600248E-04  1.46296225E-07  9.88551535E-03 -3.02203117E-03  2.92590978E-03
 -2.83776258E-06  7.99040846E-05  4.11117151E-07  3.15374131E-07  5.66933831E-04
 -4.28842594E-04  5.47819485E-01  2.05029976E-02 -2.35913129E-04  3.32897733E-04
 -2.88145030E-07 -1.40253590E-02  3.99532426E-04 -7.55602129E-04  6.10338703E-07
  1.27687812E-02 -5.22145926E-03  5.18554086E-04 -1.99296093E-06  1.03047424E-04
  1.82147808E-07  8.60657416E-08  1.13232762E-04 -3.16710410E-04  1.23432393E-01
  4.61920461E-03 -9.56972110E-04  4.91365188E-04 -6.19419238E-07 -3.15786193E-03
  2.15636607E-03 -1.14257961E-03  1.41857123E-06  2.87048439E-03 -2.03655278E-03
 -1.80742768E-04 -5.35636601E-07  2.32120093E-05 -7.63519028E-08  7.54191634E-07
  8.72513116E-04  5.33179053E-04 -4.24235877E-01 -1.58783303E-02 -7.33852036E-04
 -2.12284836E-04 -9.78417303E-08  1.08606316E-02  1.61228568E-03  5.74339936E-04
  1.45761443E-07 -9.88300782E-03 -3.02259240E-03  2.92400241E-03 -2.83171307E-06
 -7.98007204E-05 -4.11000123E-07 -3.15251155E-07 -5.67289936E-04  4.28711416E-04
 -5.47619330E-01 -2.04966807E-02 -2.36409331E-04  3.32986466E-04 -2.88572899E-07
  1.40241297E-02  4.01022864E-04 -7.55802449E-04  6.12184692E-07 -1.27852318E-02
 -5.22404994E-03  5.19138257E-04 -1.99907207E-06 -1.02744283E-04 -1.82083736E-07
 -8.52241166E-08 -1.12757533E-04  3.16808692E-04  1.20115426E-04 -4.41137927E-04
 -4.15108121E-04  1.52445352E-03 -5.35583688E-04  1.96625086E-03 -1.20727876E-04
  4.43641583E-04  4.14561595E-04 -1.52216467E-03  5.35133956E-04 -1.96427835E-03
  5.61226100E-01  2.10051665E-02 -8.32414856E-05  3.27476514E-04 -2.36186017E-07
 -1.43670321E-02  2.59503378E-04 -6.21104560E-04  4.80377808E-07  1.30759950E-02
  2.35692936E-03  4.81558690E-03 -2.33275252E-06  1.05518114E-04 -1.31064262E-07
 -4.82260997E-08 -2.52248709E-04 -1.17958335E-05  3.87290270E-01  1.44954331E-02
  6.20258254E-04  5.50891434E-04 -1.55399961E-07 -9.91733796E-03 -1.45567567E-03
 -1.16757186E-03  2.84673289E-07  9.03330397E-03 -7.50083575E-04  3.83115036E-03
 -2.69216475E-06  7.28222577E-05 -4.69511235E-07 -2.72459514E-07 -7.09472978E-04
  3.17375661E-04 -1.73956115E-01 -6.51077341E-03  7.50386948E-05  1.04840540E-03
 -6.47529541E-07  4.45553789E-03 -1.28041471E-04 -2.37966291E-03  1.48300646E-06